<?xml version="1.0" encoding="UTF-8"?>

<!-- generated on Wed Feb 27 14:51:48 2019 by Eclipse SUMO Version 1.1.0
<configuration xmlns:xsi="http://www.w3.org/2001/XMLSchema-instance" xsi:noNamespaceSchemaLocation="http://sumo.dlr.de/xsd/sumoConfiguration.xsd">

    <input>
        <net-file value="environment/tlcs.net.xml"/>
        <route-files value="environment/tlcs_train.rou.xml"/>
    </input>

    <output>
        <tripinfo-output value="environment/tripinfo.xml"/>
    </output>

    <time>
        <begin value="0"/>
    </time>

    <processing>
        <time-to-teleport value="-1"/>
    </processing>

    <report>
        <no-step-log value="true"/>
    </report>

    <traci_server>
        <remote-port value="43745"/>
    </traci_server>

</configuration>
-->

<tripinfos xmlns:xsi="http://www.w3.org/2001/XMLSchema-instance" xsi:noNamespaceSchemaLocation="http://sumo.dlr.de/xsd/tripinfo_file.xsd">
    <tripinfo id="E_W_0" depart="62.00" departLane="E2TL_0" departPos="5.10" departSpeed="0.00" departDelay="0.00" arrival="284.00" arrivalLane="TL2W_0" arrivalPos="750.00" arrivalSpeed="14.55" duration="222.00" routeLength="1528.50" waitingTime="96.00" waitingCount="1" stopTime="0.00" timeLoss="117.66" rerouteNo="0" devices="tripinfo_E_W_0" vType="standard_car" speedFactor="1.06" vaporized=""/>
    <tripinfo id="W_E_4" depart="130.00" departLane="W2TL_0" departPos="5.10" departSpeed="0.00" departDelay="0.00" arrival="286.00" arrivalLane="TL2E_0" arrivalPos="750.00" arrivalSpeed="13.93" duration="156.00" routeLength="1528.50" waitingTime="28.00" waitingCount="1" stopTime="0.00" timeLoss="48.26" rerouteNo="0" devices="tripinfo_W_E_4" vType="standard_car" speedFactor="1.03" vaporized=""/>
    <tripinfo id="W_S_11" depart="164.00" departLane="W2TL_0" departPos="5.10" departSpeed="0.00" departDelay="0.00" arrival="286.00" arrivalLane="TL2S_0" arrivalPos="750.00" arrivalSpeed="14.09" duration="122.00" routeLength="1503.93" waitingTime="0.00" waitingCount="0" stopTime="0.00" timeLoss="15.46" rerouteNo="0" devices="tripinfo_W_S_11" vType="standard_car" speedFactor="1.03" vaporized=""/>
    <tripinfo id="E_W_12" depart="165.00" departLane="E2TL_0" departPos="5.10" departSpeed="0.00" departDelay="0.00" arrival="286.00" arrivalLane="TL2W_0" arrivalPos="750.00" arrivalSpeed="14.09" duration="121.00" routeLength="1528.50" waitingTime="0.00" waitingCount="0" stopTime="0.00" timeLoss="15.48" rerouteNo="0" devices="tripinfo_E_W_12" vType="standard_car" speedFactor="1.05" vaporized=""/>
    <tripinfo id="W_E_2" depart="107.00" departLane="W2TL_0" departPos="5.10" departSpeed="0.00" departDelay="0.00" arrival="287.00" arrivalLane="TL2E_0" arrivalPos="750.00" arrivalSpeed="13.56" duration="180.00" routeLength="1528.50" waitingTime="50.00" waitingCount="1" stopTime="0.00" timeLoss="70.88" rerouteNo="0" devices="tripinfo_W_E_2" vType="standard_car" speedFactor="1.01" vaporized=""/>
    <tripinfo id="E_W_1" depart="82.00" departLane="E2TL_0" departPos="5.10" departSpeed="0.00" departDelay="0.00" arrival="290.00" arrivalLane="TL2W_0" arrivalPos="750.00" arrivalSpeed="12.68" duration="208.00" routeLength="1528.50" waitingTime="71.00" waitingCount="1" stopTime="0.00" timeLoss="90.36" rerouteNo="0" devices="tripinfo_E_W_1" vType="standard_car" speedFactor="0.94" vaporized=""/>
    <tripinfo id="E_W_14" depart="171.00" departLane="E2TL_0" departPos="5.10" departSpeed="0.00" departDelay="0.00" arrival="293.00" arrivalLane="TL2W_0" arrivalPos="750.00" arrivalSpeed="13.71" duration="122.00" routeLength="1528.50" waitingTime="0.00" waitingCount="0" stopTime="0.00" timeLoss="10.20" rerouteNo="0" devices="tripinfo_E_W_14" vType="standard_car" speedFactor="0.99" vaporized=""/>
    <tripinfo id="W_N_13" depart="169.00" departLane="W2TL_0" departPos="5.10" departSpeed="0.00" departDelay="2.00" arrival="321.00" arrivalLane="TL2N_0" arrivalPos="750.00" arrivalSpeed="15.21" duration="152.00" routeLength="1524.57" waitingTime="30.00" waitingCount="1" stopTime="0.00" timeLoss="53.16" rerouteNo="0" devices="tripinfo_W_N_13" vType="standard_car" speedFactor="1.12" vaporized=""/>
    <tripinfo id="W_N_8" depart="154.00" departLane="W2TL_0" departPos="5.10" departSpeed="0.00" departDelay="0.00" arrival="327.00" arrivalLane="TL2N_0" arrivalPos="750.00" arrivalSpeed="12.53" duration="173.00" routeLength="1524.57" waitingTime="35.00" waitingCount="1" stopTime="0.00" timeLoss="55.09" rerouteNo="0" devices="tripinfo_W_N_8" vType="standard_car" speedFactor="0.94" vaporized=""/>
    <tripinfo id="N_S_3" depart="129.00" departLane="N2TL_0" departPos="5.10" departSpeed="0.00" departDelay="0.00" arrival="358.00" arrivalLane="TL2S_0" arrivalPos="750.00" arrivalSpeed="14.87" duration="229.00" routeLength="1528.50" waitingTime="104.00" waitingCount="1" stopTime="0.00" timeLoss="126.92" rerouteNo="0" devices="tripinfo_N_S_3" vType="standard_car" speedFactor="1.08" vaporized=""/>
    <tripinfo id="N_S_10" depart="157.00" departLane="N2TL_0" departPos="5.10" departSpeed="0.00" departDelay="0.00" arrival="358.00" arrivalLane="TL2S_1" arrivalPos="750.00" arrivalSpeed="15.08" duration="201.00" routeLength="1528.50" waitingTime="76.00" waitingCount="1" stopTime="0.00" timeLoss="99.20" rerouteNo="0" devices="tripinfo_N_S_10" vType="standard_car" speedFactor="1.09" vaporized=""/>
    <tripinfo id="N_S_6" depart="139.00" departLane="N2TL_0" departPos="5.10" departSpeed="0.00" departDelay="0.00" arrival="359.00" arrivalLane="TL2S_0" arrivalPos="750.00" arrivalSpeed="14.33" duration="220.00" routeLength="1528.50" waitingTime="92.00" waitingCount="1" stopTime="0.00" timeLoss="114.38" rerouteNo="0" devices="tripinfo_N_S_6" vType="standard_car" speedFactor="1.05" vaporized=""/>
    <tripinfo id="S_N_15" depart="172.00" departLane="S2TL_0" departPos="5.10" departSpeed="0.00" departDelay="0.00" arrival="366.00" arrivalLane="TL2N_0" arrivalPos="750.00" arrivalSpeed="12.62" duration="194.00" routeLength="1528.50" waitingTime="55.00" waitingCount="1" stopTime="0.00" timeLoss="74.39" rerouteNo="0" devices="tripinfo_S_N_15" vType="standard_car" speedFactor="0.93" vaporized=""/>
    <tripinfo id="N_W_28" depart="256.00" departLane="N2TL_0" departPos="5.10" departSpeed="0.00" departDelay="0.00" arrival="367.00" arrivalLane="TL2W_1" arrivalPos="750.00" arrivalSpeed="15.33" duration="111.00" routeLength="1503.93" waitingTime="0.00" waitingCount="0" stopTime="0.00" timeLoss="14.60" rerouteNo="0" devices="tripinfo_N_W_28" vType="standard_car" speedFactor="1.13" vaporized=""/>
    <tripinfo id="S_N_23" depart="221.00" departLane="S2TL_0" departPos="5.10" departSpeed="0.00" departDelay="0.00" arrival="367.00" arrivalLane="TL2N_0" arrivalPos="750.00" arrivalSpeed="12.29" duration="146.00" routeLength="1528.50" waitingTime="2.00" waitingCount="1" stopTime="0.00" timeLoss="22.06" rerouteNo="0" devices="tripinfo_S_N_23" vType="standard_car" speedFactor="0.89" vaporized=""/>
    <tripinfo id="N_S_27" depart="241.00" departLane="N2TL_0" departPos="5.10" departSpeed="0.00" departDelay="0.00" arrival="368.00" arrivalLane="TL2S_0" arrivalPos="750.00" arrivalSpeed="13.10" duration="127.00" routeLength="1528.50" waitingTime="0.00" waitingCount="0" stopTime="0.00" timeLoss="10.41" rerouteNo="0" devices="tripinfo_N_S_27" vType="standard_car" speedFactor="0.95" vaporized=""/>
    <tripinfo id="S_N_9" depart="154.00" departLane="S2TL_0" departPos="5.10" departSpeed="0.00" departDelay="0.00" arrival="370.00" arrivalLane="TL2N_0" arrivalPos="750.00" arrivalSpeed="11.82" duration="216.00" routeLength="1528.50" waitingTime="67.00" waitingCount="1" stopTime="0.00" timeLoss="87.35" rerouteNo="0" devices="tripinfo_S_N_9" vType="standard_car" speedFactor="0.86" vaporized=""/>
    <tripinfo id="N_S_7" depart="150.00" departLane="N2TL_0" departPos="5.10" departSpeed="0.00" departDelay="0.00" arrival="371.00" arrivalLane="TL2S_0" arrivalPos="750.00" arrivalSpeed="12.18" duration="221.00" routeLength="1528.50" waitingTime="74.00" waitingCount="1" stopTime="0.00" timeLoss="95.91" rerouteNo="0" devices="tripinfo_N_S_7" vType="standard_car" speedFactor="0.89" vaporized=""/>
    <tripinfo id="S_N_25" depart="232.00" departLane="S2TL_0" departPos="5.10" departSpeed="0.00" departDelay="2.00" arrival="371.00" arrivalLane="TL2N_1" arrivalPos="750.00" arrivalSpeed="11.89" duration="139.00" routeLength="1528.50" waitingTime="1.00" waitingCount="1" stopTime="0.00" timeLoss="12.22" rerouteNo="0" devices="tripinfo_S_N_25" vType="standard_car" speedFactor="0.87" vaporized=""/>
    <tripinfo id="N_W_5" depart="134.00" departLane="N2TL_0" departPos="5.10" departSpeed="0.00" departDelay="2.00" arrival="372.00" arrivalLane="TL2W_0" arrivalPos="750.00" arrivalSpeed="11.27" duration="238.00" routeLength="1503.93" waitingTime="87.00" waitingCount="1" stopTime="0.00" timeLoss="106.40" rerouteNo="0" devices="tripinfo_N_W_5" vType="standard_car" speedFactor="0.83" vaporized=""/>
    <tripinfo id="S_N_19" depart="193.00" departLane="S2TL_0" departPos="5.10" departSpeed="0.00" departDelay="0.00" arrival="372.00" arrivalLane="TL2N_0" arrivalPos="750.00" arrivalSpeed="12.96" duration="179.00" routeLength="1528.50" waitingTime="43.00" waitingCount="1" stopTime="0.00" timeLoss="83.51" rerouteNo="0" devices="tripinfo_S_N_19" vType="standard_car" speedFactor="1.16" vaporized=""/>
    <tripinfo id="N_S_30" depart="268.00" departLane="N2TL_0" departPos="5.10" departSpeed="0.00" departDelay="0.00" arrival="374.00" arrivalLane="TL2S_0" arrivalPos="750.00" arrivalSpeed="16.34" duration="106.00" routeLength="1528.50" waitingTime="0.00" waitingCount="0" stopTime="0.00" timeLoss="12.14" rerouteNo="0" devices="tripinfo_N_S_30" vType="standard_car" speedFactor="1.18" vaporized=""/>
    <tripinfo id="S_N_24" depart="228.00" departLane="S2TL_0" departPos="5.10" departSpeed="0.00" departDelay="0.00" arrival="374.00" arrivalLane="TL2N_0" arrivalPos="750.00" arrivalSpeed="11.23" duration="146.00" routeLength="1528.50" waitingTime="0.00" waitingCount="0" stopTime="0.00" timeLoss="11.96" rerouteNo="0" devices="tripinfo_S_N_24" vType="standard_car" speedFactor="0.83" vaporized=""/>
    <tripinfo id="S_W_29" depart="260.00" departLane="S2TL_0" departPos="5.10" departSpeed="0.00" departDelay="0.00" arrival="402.00" arrivalLane="TL2W_0" arrivalPos="750.00" arrivalSpeed="12.76" duration="142.00" routeLength="1524.57" waitingTime="4.00" waitingCount="1" stopTime="0.00" timeLoss="23.10" rerouteNo="0" devices="tripinfo_S_W_29" vType="standard_car" speedFactor="0.93" vaporized=""/>
    <tripinfo id="S_E_17" depart="188.00" departLane="N2TL_0" departPos="5.10" departSpeed="0.00" departDelay="0.00" arrival="403.00" arrivalLane="TL2E_0" arrivalPos="750.00" arrivalSpeed="12.63" duration="215.00" routeLength="1524.57" waitingTime="78.00" waitingCount="1" stopTime="0.00" timeLoss="97.67" rerouteNo="0" devices="tripinfo_S_E_17" vType="standard_car" speedFactor="0.94" vaporized=""/>
    <tripinfo id="S_E_16" depart="173.00" departLane="N2TL_0" departPos="5.10" departSpeed="0.00" departDelay="0.00" arrival="405.00" arrivalLane="TL2E_0" arrivalPos="750.00" arrivalSpeed="12.14" duration="232.00" routeLength="1524.57" waitingTime="88.00" waitingCount="1" stopTime="0.00" timeLoss="105.89" rerouteNo="0" devices="tripinfo_S_E_16" vType="standard_car" speedFactor="0.88" vaporized=""/>
    <tripinfo id="W_E_40" depart="305.00" departLane="W2TL_0" departPos="5.10" departSpeed="0.00" departDelay="0.00" arrival="427.00" arrivalLane="TL2E_0" arrivalPos="750.00" arrivalSpeed="14.27" duration="122.00" routeLength="1528.50" waitingTime="0.00" waitingCount="0" stopTime="0.00" timeLoss="14.98" rerouteNo="0" devices="tripinfo_W_E_40" vType="standard_car" speedFactor="1.03" vaporized=""/>
    <tripinfo id="E_W_33" depart="288.00" departLane="E2TL_0" departPos="5.10" departSpeed="0.00" departDelay="2.00" arrival="428.00" arrivalLane="TL2W_0" arrivalPos="750.00" arrivalSpeed="15.88" duration="140.00" routeLength="1528.50" waitingTime="21.00" waitingCount="1" stopTime="0.00" timeLoss="45.63" rerouteNo="0" devices="tripinfo_E_W_33" vType="standard_car" speedFactor="1.17" vaporized=""/>
    <tripinfo id="E_W_37" depart="298.00" departLane="E2TL_0" departPos="5.10" departSpeed="0.00" departDelay="0.00" arrival="431.00" arrivalLane="TL2W_0" arrivalPos="750.00" arrivalSpeed="16.00" duration="133.00" routeLength="1528.50" waitingTime="12.00" waitingCount="1" stopTime="0.00" timeLoss="38.87" rerouteNo="0" devices="tripinfo_E_W_37" vType="standard_car" speedFactor="1.18" vaporized=""/>
    <tripinfo id="E_W_42" depart="309.00" departLane="E2TL_0" departPos="5.10" departSpeed="0.00" departDelay="0.00" arrival="433.00" arrivalLane="TL2W_1" arrivalPos="750.00" arrivalSpeed="15.09" duration="124.00" routeLength="1528.50" waitingTime="0.00" waitingCount="0" stopTime="0.00" timeLoss="22.87" rerouteNo="0" devices="tripinfo_E_W_42" vType="standard_car" speedFactor="1.09" vaporized=""/>
    <tripinfo id="E_W_20" depart="210.00" departLane="E2TL_0" departPos="5.10" departSpeed="0.00" departDelay="0.00" arrival="434.00" arrivalLane="TL2W_0" arrivalPos="750.00" arrivalSpeed="13.66" duration="224.00" routeLength="1528.50" waitingTime="95.00" waitingCount="1" stopTime="0.00" timeLoss="115.89" rerouteNo="0" devices="tripinfo_E_W_20" vType="standard_car" speedFactor="1.02" vaporized=""/>
    <tripinfo id="W_E_21" depart="216.00" departLane="W2TL_0" departPos="5.10" departSpeed="0.00" departDelay="0.00" arrival="435.00" arrivalLane="TL2E_0" arrivalPos="750.00" arrivalSpeed="13.61" duration="219.00" routeLength="1528.50" waitingTime="88.00" waitingCount="1" stopTime="0.00" timeLoss="109.54" rerouteNo="0" devices="tripinfo_W_E_21" vType="standard_car" speedFactor="1.01" vaporized=""/>
    <tripinfo id="E_W_44" depart="317.00" departLane="E2TL_0" departPos="5.10" departSpeed="0.00" departDelay="0.00" arrival="437.00" arrivalLane="TL2W_1" arrivalPos="750.00" arrivalSpeed="14.25" duration="120.00" routeLength="1528.50" waitingTime="0.00" waitingCount="0" stopTime="0.00" timeLoss="13.85" rerouteNo="0" devices="tripinfo_E_W_44" vType="standard_car" speedFactor="1.04" vaporized=""/>
    <tripinfo id="W_S_36" depart="294.00" departLane="W2TL_0" departPos="5.10" departSpeed="0.00" departDelay="0.00" arrival="438.00" arrivalLane="TL2S_0" arrivalPos="750.00" arrivalSpeed="13.34" duration="144.00" routeLength="1503.93" waitingTime="9.00" waitingCount="1" stopTime="0.00" timeLoss="31.28" rerouteNo="0" devices="tripinfo_W_S_36" vType="standard_car" speedFactor="0.97" vaporized=""/>
    <tripinfo id="E_W_22" depart="220.00" departLane="E2TL_0" departPos="5.10" departSpeed="0.00" departDelay="0.00" arrival="440.00" arrivalLane="TL2W_1" arrivalPos="750.00" arrivalSpeed="13.47" duration="220.00" routeLength="1528.50" waitingTime="84.00" waitingCount="1" stopTime="0.00" timeLoss="106.27" rerouteNo="0" devices="tripinfo_E_W_22" vType="standard_car" speedFactor="0.98" vaporized=""/>
    <tripinfo id="W_E_26" depart="240.00" departLane="W2TL_0" departPos="5.10" departSpeed="0.00" departDelay="0.00" arrival="440.00" arrivalLane="TL2E_0" arrivalPos="750.00" arrivalSpeed="12.58" duration="200.00" routeLength="1528.50" waitingTime="60.00" waitingCount="1" stopTime="0.00" timeLoss="79.85" rerouteNo="0" devices="tripinfo_W_E_26" vType="standard_car" speedFactor="0.92" vaporized=""/>
    <tripinfo id="E_W_18" depart="190.00" departLane="E2TL_0" departPos="5.10" departSpeed="0.00" departDelay="0.00" arrival="440.00" arrivalLane="TL2W_0" arrivalPos="750.00" arrivalSpeed="12.59" duration="250.00" routeLength="1528.50" waitingTime="110.00" waitingCount="1" stopTime="0.00" timeLoss="131.71" rerouteNo="0" devices="tripinfo_E_W_18" vType="standard_car" speedFactor="0.94" vaporized=""/>
    <tripinfo id="W_E_46" depart="321.00" departLane="W2TL_0" departPos="5.10" departSpeed="0.00" departDelay="0.00" arrival="443.00" arrivalLane="TL2E_0" arrivalPos="750.00" arrivalSpeed="13.38" duration="122.00" routeLength="1528.50" waitingTime="0.00" waitingCount="0" stopTime="0.00" timeLoss="11.50" rerouteNo="0" devices="tripinfo_W_E_46" vType="standard_car" speedFactor="1.00" vaporized=""/>
    <tripinfo id="E_W_39" depart="303.00" departLane="E2TL_0" departPos="5.10" departSpeed="0.00" departDelay="2.00" arrival="446.00" arrivalLane="TL2W_0" arrivalPos="750.00" arrivalSpeed="12.03" duration="143.00" routeLength="1528.50" waitingTime="0.00" waitingCount="0" stopTime="0.00" timeLoss="19.93" rerouteNo="0" devices="tripinfo_E_W_39" vType="standard_car" speedFactor="0.90" vaporized=""/>
    <tripinfo id="W_N_53" depart="354.00" departLane="W2TL_0" departPos="5.10" departSpeed="0.00" departDelay="0.00" arrival="467.00" arrivalLane="TL2N_0" arrivalPos="750.00" arrivalSpeed="15.02" duration="113.00" routeLength="1524.57" waitingTime="0.00" waitingCount="0" stopTime="0.00" timeLoss="12.00" rerouteNo="0" devices="tripinfo_W_N_53" vType="standard_car" speedFactor="1.10" vaporized=""/>
    <tripinfo id="E_S_45" depart="322.00" departLane="E2TL_0" departPos="5.10" departSpeed="0.00" departDelay="3.00" arrival="471.00" arrivalLane="TL2S_0" arrivalPos="750.00" arrivalSpeed="14.76" duration="149.00" routeLength="1524.57" waitingTime="24.00" waitingCount="1" stopTime="0.00" timeLoss="46.93" rerouteNo="0" devices="tripinfo_E_S_45" vType="standard_car" speedFactor="1.09" vaporized=""/>
    <tripinfo id="E_S_32" depart="284.00" departLane="E2TL_0" departPos="5.10" departSpeed="0.00" departDelay="0.00" arrival="472.00" arrivalLane="TL2S_0" arrivalPos="750.00" arrivalSpeed="13.67" duration="188.00" routeLength="1524.57" waitingTime="58.00" waitingCount="1" stopTime="0.00" timeLoss="78.09" rerouteNo="0" devices="tripinfo_E_S_32" vType="standard_car" speedFactor="1.01" vaporized=""/>
    <tripinfo id="N_S_31" depart="281.00" departLane="N2TL_0" departPos="5.10" departSpeed="0.00" departDelay="0.00" arrival="504.00" arrivalLane="TL2S_0" arrivalPos="750.00" arrivalSpeed="15.60" duration="223.00" routeLength="1528.50" waitingTime="101.00" waitingCount="1" stopTime="0.00" timeLoss="127.30" rerouteNo="0" devices="tripinfo_N_S_31" vType="standard_car" speedFactor="1.15" vaporized=""/>
    <tripinfo id="N_S_38" depart="299.00" departLane="N2TL_0" departPos="5.10" departSpeed="0.00" departDelay="0.00" arrival="505.00" arrivalLane="TL2S_0" arrivalPos="750.00" arrivalSpeed="14.91" duration="206.00" routeLength="1528.50" waitingTime="81.00" waitingCount="1" stopTime="0.00" timeLoss="105.73" rerouteNo="0" devices="tripinfo_N_S_38" vType="standard_car" speedFactor="1.10" vaporized=""/>
    <tripinfo id="S_N_61" depart="384.00" departLane="S2TL_0" departPos="5.10" departSpeed="0.00" departDelay="0.00" arrival="507.00" arrivalLane="TL2N_1" arrivalPos="750.00" arrivalSpeed="15.13" duration="123.00" routeLength="1528.50" waitingTime="0.00" waitingCount="0" stopTime="0.00" timeLoss="24.56" rerouteNo="0" devices="tripinfo_S_N_61" vType="standard_car" speedFactor="1.12" vaporized=""/>
    <tripinfo id="N_S_43" depart="313.00" departLane="N2TL_0" departPos="5.10" departSpeed="0.00" departDelay="1.00" arrival="508.00" arrivalLane="TL2S_0" arrivalPos="750.00" arrivalSpeed="14.36" duration="195.00" routeLength="1528.50" waitingTime="66.00" waitingCount="1" stopTime="0.00" timeLoss="88.33" rerouteNo="0" devices="tripinfo_N_S_43" vType="standard_car" speedFactor="1.04" vaporized=""/>
    <tripinfo id="S_N_35" depart="294.00" departLane="S2TL_0" departPos="5.10" departSpeed="0.00" departDelay="1.00" arrival="509.00" arrivalLane="TL2N_1" arrivalPos="750.00" arrivalSpeed="13.83" duration="215.00" routeLength="1528.50" waitingTime="83.00" waitingCount="1" stopTime="0.00" timeLoss="106.91" rerouteNo="0" devices="tripinfo_S_N_35" vType="standard_car" speedFactor="1.02" vaporized=""/>
    <tripinfo id="S_N_34" depart="290.00" departLane="S2TL_0" departPos="5.10" departSpeed="0.00" departDelay="0.00" arrival="510.00" arrivalLane="TL2N_0" arrivalPos="750.00" arrivalSpeed="13.75" duration="220.00" routeLength="1528.50" waitingTime="87.00" waitingCount="1" stopTime="0.00" timeLoss="108.76" rerouteNo="0" devices="tripinfo_S_N_34" vType="standard_car" speedFactor="0.99" vaporized=""/>
    <tripinfo id="S_N_57" depart="370.00" departLane="S2TL_0" departPos="5.10" departSpeed="0.00" departDelay="0.00" arrival="511.00" arrivalLane="TL2N_2" arrivalPos="750.00" arrivalSpeed="15.83" duration="141.00" routeLength="1528.50" waitingTime="16.00" waitingCount="1" stopTime="0.00" timeLoss="43.70" rerouteNo="0" devices="tripinfo_S_N_57" vType="standard_car" speedFactor="1.14" vaporized=""/>
    <tripinfo id="S_N_54" depart="362.00" departLane="S2TL_0" departPos="5.10" departSpeed="0.00" departDelay="0.00" arrival="512.00" arrivalLane="TL2N_0" arrivalPos="750.00" arrivalSpeed="13.48" duration="150.00" routeLength="1528.50" waitingTime="17.00" waitingCount="1" stopTime="0.00" timeLoss="40.07" rerouteNo="0" devices="tripinfo_S_N_54" vType="standard_car" speedFactor="1.00" vaporized=""/>
    <tripinfo id="N_S_55" depart="367.00" departLane="N2TL_0" departPos="5.10" departSpeed="0.00" departDelay="0.00" arrival="512.00" arrivalLane="TL2S_0" arrivalPos="750.00" arrivalSpeed="13.53" duration="145.00" routeLength="1528.50" waitingTime="11.00" waitingCount="1" stopTime="0.00" timeLoss="33.73" rerouteNo="0" devices="tripinfo_N_S_55" vType="standard_car" speedFactor="1.00" vaporized=""/>
    <tripinfo id="N_S_51" depart="345.00" departLane="N2TL_0" departPos="5.10" departSpeed="0.00" departDelay="0.00" arrival="514.00" arrivalLane="TL2S_1" arrivalPos="750.00" arrivalSpeed="15.89" duration="169.00" routeLength="1528.50" waitingTime="42.00" waitingCount="1" stopTime="0.00" timeLoss="74.27" rerouteNo="0" devices="tripinfo_N_S_51" vType="standard_car" speedFactor="1.17" vaporized=""/>
    <tripinfo id="S_N_62" depart="389.00" departLane="S2TL_0" departPos="5.10" departSpeed="0.00" departDelay="4.00" arrival="514.00" arrivalLane="TL2N_1" arrivalPos="750.00" arrivalSpeed="13.89" duration="125.00" routeLength="1528.50" waitingTime="0.00" waitingCount="0" stopTime="0.00" timeLoss="16.18" rerouteNo="0" devices="tripinfo_S_N_62" vType="standard_car" speedFactor="1.02" vaporized=""/>
    <tripinfo id="N_S_41" depart="309.00" departLane="N2TL_0" departPos="5.10" departSpeed="0.00" departDelay="0.00" arrival="514.00" arrivalLane="TL2S_0" arrivalPos="750.00" arrivalSpeed="12.90" duration="205.00" routeLength="1528.50" waitingTime="68.00" waitingCount="1" stopTime="0.00" timeLoss="89.92" rerouteNo="0" devices="tripinfo_N_S_41" vType="standard_car" speedFactor="0.96" vaporized=""/>
    <tripinfo id="S_N_47" depart="325.00" departLane="S2TL_0" departPos="5.10" departSpeed="0.00" departDelay="0.00" arrival="517.00" arrivalLane="TL2N_0" arrivalPos="750.00" arrivalSpeed="12.26" duration="192.00" routeLength="1528.50" waitingTime="48.00" waitingCount="1" stopTime="0.00" timeLoss="69.20" rerouteNo="0" devices="tripinfo_S_N_47" vType="standard_car" speedFactor="0.90" vaporized=""/>
    <tripinfo id="S_N_49" depart="338.00" departLane="S2TL_0" departPos="5.10" departSpeed="0.00" departDelay="0.00" arrival="519.00" arrivalLane="TL2N_0" arrivalPos="750.00" arrivalSpeed="11.56" duration="181.00" routeLength="1528.50" waitingTime="29.00" waitingCount="1" stopTime="0.00" timeLoss="51.42" rerouteNo="0" devices="tripinfo_S_N_49" vType="standard_car" speedFactor="0.85" vaporized=""/>
    <tripinfo id="N_S_48" depart="326.00" departLane="N2TL_0" departPos="5.10" departSpeed="0.00" departDelay="0.00" arrival="519.00" arrivalLane="TL2S_0" arrivalPos="750.00" arrivalSpeed="11.72" duration="193.00" routeLength="1528.50" waitingTime="47.00" waitingCount="1" stopTime="0.00" timeLoss="66.78" rerouteNo="0" devices="tripinfo_N_S_48" vType="standard_car" speedFactor="0.88" vaporized=""/>
    <tripinfo id="S_N_67" depart="399.00" departLane="S2TL_0" departPos="5.10" departSpeed="0.00" departDelay="0.00" arrival="530.00" arrivalLane="TL2N_0" arrivalPos="750.00" arrivalSpeed="12.27" duration="131.00" routeLength="1528.50" waitingTime="0.00" waitingCount="0" stopTime="0.00" timeLoss="10.56" rerouteNo="0" devices="tripinfo_S_N_67" vType="standard_car" speedFactor="0.91" vaporized=""/>
    <tripinfo id="S_E_59" depart="381.00" departLane="N2TL_0" departPos="5.10" departSpeed="0.00" departDelay="0.00" arrival="548.00" arrivalLane="TL2E_0" arrivalPos="750.00" arrivalSpeed="13.01" duration="167.00" routeLength="1524.57" waitingTime="33.00" waitingCount="1" stopTime="0.00" timeLoss="52.95" rerouteNo="0" devices="tripinfo_S_E_59" vType="standard_car" speedFactor="0.97" vaporized=""/>
    <tripinfo id="S_E_63" depart="389.00" departLane="N2TL_0" departPos="5.10" departSpeed="0.00" departDelay="0.00" arrival="550.00" arrivalLane="TL2E_1" arrivalPos="750.00" arrivalSpeed="13.67" duration="161.00" routeLength="1524.57" waitingTime="26.00" waitingCount="1" stopTime="0.00" timeLoss="48.62" rerouteNo="0" devices="tripinfo_S_E_63" vType="standard_car" speedFactor="0.99" vaporized=""/>
    <tripinfo id="W_S_60" depart="384.00" departLane="W2TL_0" departPos="5.10" departSpeed="0.00" departDelay="0.00" arrival="580.00" arrivalLane="TL2S_0" arrivalPos="750.00" arrivalSpeed="14.70" duration="196.00" routeLength="1503.93" waitingTime="73.00" waitingCount="1" stopTime="0.00" timeLoss="94.63" rerouteNo="0" devices="tripinfo_W_S_60" vType="standard_car" speedFactor="1.08" vaporized=""/>
    <tripinfo id="E_W_68" depart="401.00" departLane="E2TL_0" departPos="5.10" departSpeed="0.00" departDelay="0.00" arrival="581.00" arrivalLane="TL2W_0" arrivalPos="750.00" arrivalSpeed="14.34" duration="180.00" routeLength="1528.50" waitingTime="50.00" waitingCount="1" stopTime="0.00" timeLoss="73.62" rerouteNo="0" devices="tripinfo_E_W_68" vType="standard_car" speedFactor="1.04" vaporized=""/>
    <tripinfo id="W_E_76" depart="436.00" departLane="W2TL_0" departPos="5.10" departSpeed="0.00" departDelay="0.00" arrival="581.00" arrivalLane="TL2E_0" arrivalPos="750.00" arrivalSpeed="14.30" duration="145.00" routeLength="1528.50" waitingTime="18.00" waitingCount="1" stopTime="0.00" timeLoss="38.39" rerouteNo="0" devices="tripinfo_W_E_76" vType="standard_car" speedFactor="1.03" vaporized=""/>
    <tripinfo id="E_W_52" depart="349.00" departLane="E2TL_0" departPos="5.10" departSpeed="0.00" departDelay="0.00" arrival="583.00" arrivalLane="TL2W_0" arrivalPos="750.00" arrivalSpeed="13.82" duration="234.00" routeLength="1528.50" waitingTime="103.00" waitingCount="1" stopTime="0.00" timeLoss="125.12" rerouteNo="0" devices="tripinfo_E_W_52" vType="standard_car" speedFactor="1.02" vaporized=""/>
    <tripinfo id="W_E_58" depart="377.00" departLane="W2TL_0" departPos="5.10" departSpeed="0.00" departDelay="0.00" arrival="583.00" arrivalLane="TL2E_0" arrivalPos="750.00" arrivalSpeed="13.78" duration="206.00" routeLength="1528.50" waitingTime="76.00" waitingCount="1" stopTime="0.00" timeLoss="98.08" rerouteNo="0" devices="tripinfo_W_E_58" vType="standard_car" speedFactor="1.02" vaporized=""/>
    <tripinfo id="E_W_69" depart="410.00" departLane="E2TL_0" departPos="5.10" departSpeed="0.00" departDelay="0.00" arrival="584.00" arrivalLane="TL2W_1" arrivalPos="750.00" arrivalSpeed="14.12" duration="174.00" routeLength="1528.50" waitingTime="43.00" waitingCount="1" stopTime="0.00" timeLoss="66.22" rerouteNo="0" devices="tripinfo_E_W_69" vType="standard_car" speedFactor="1.02" vaporized=""/>
    <tripinfo id="E_W_87" depart="462.00" departLane="E2TL_0" departPos="5.10" departSpeed="0.00" departDelay="2.00" arrival="585.00" arrivalLane="TL2W_3" arrivalPos="750.00" arrivalSpeed="14.44" duration="123.00" routeLength="1528.50" waitingTime="0.00" waitingCount="0" stopTime="0.00" timeLoss="17.04" rerouteNo="0" devices="tripinfo_E_W_87" vType="standard_car" speedFactor="1.04" vaporized=""/>
    <tripinfo id="E_W_78" depart="446.00" departLane="E2TL_0" departPos="5.10" departSpeed="0.00" departDelay="0.00" arrival="585.00" arrivalLane="TL2W_1" arrivalPos="750.00" arrivalSpeed="13.68" duration="139.00" routeLength="1528.50" waitingTime="7.00" waitingCount="1" stopTime="0.00" timeLoss="29.13" rerouteNo="0" devices="tripinfo_E_W_78" vType="standard_car" speedFactor="1.01" vaporized=""/>
    <tripinfo id="W_E_64" depart="390.00" departLane="W2TL_0" departPos="5.10" departSpeed="0.00" departDelay="0.00" arrival="587.00" arrivalLane="TL2E_1" arrivalPos="750.00" arrivalSpeed="12.64" duration="197.00" routeLength="1528.50" waitingTime="59.00" waitingCount="1" stopTime="0.00" timeLoss="79.53" rerouteNo="0" devices="tripinfo_W_E_64" vType="standard_car" speedFactor="0.94" vaporized=""/>
    <tripinfo id="W_E_77" depart="446.00" departLane="W2TL_0" departPos="5.10" departSpeed="0.00" departDelay="0.00" arrival="587.00" arrivalLane="TL2E_0" arrivalPos="750.00" arrivalSpeed="13.52" duration="141.00" routeLength="1528.50" waitingTime="6.00" waitingCount="1" stopTime="0.00" timeLoss="28.77" rerouteNo="0" devices="tripinfo_W_E_77" vType="standard_car" speedFactor="0.98" vaporized=""/>
    <tripinfo id="W_E_88" depart="464.00" departLane="W2TL_0" departPos="5.10" departSpeed="0.00" departDelay="1.00" arrival="588.00" arrivalLane="TL2E_2" arrivalPos="750.00" arrivalSpeed="13.59" duration="124.00" routeLength="1528.50" waitingTime="0.00" waitingCount="0" stopTime="0.00" timeLoss="14.13" rerouteNo="0" devices="tripinfo_W_E_88" vType="standard_car" speedFactor="1.01" vaporized=""/>
    <tripinfo id="E_W_81" depart="454.00" departLane="E2TL_0" departPos="5.10" departSpeed="0.00" departDelay="3.00" arrival="588.00" arrivalLane="TL2W_0" arrivalPos="750.00" arrivalSpeed="13.85" duration="134.00" routeLength="1528.50" waitingTime="0.00" waitingCount="0" stopTime="0.00" timeLoss="23.17" rerouteNo="0" devices="tripinfo_E_W_81" vType="standard_car" speedFactor="1.00" vaporized=""/>