<?xml version="1.0" encoding="UTF-8"?>

<!-- generated on Tue Feb 26 16:24:47 2019 by Eclipse SUMO Version 1.1.0
<configuration xmlns:xsi="http://www.w3.org/2001/XMLSchema-instance" xsi:noNamespaceSchemaLocation="http://sumo.dlr.de/xsd/sumoConfiguration.xsd">

    <input>
        <net-file value="environment/tlcs.net.xml"/>
        <route-files value="environment/tlcs_test.rou.xml"/>
    </input>

    <output>
        <tripinfo-output value="environment/tripinfo.xml"/>
    </output>

    <time>
        <begin value="0"/>
    </time>

    <processing>
        <time-to-teleport value="-1"/>
    </processing>

    <report>
        <no-step-log value="true"/>
    </report>

    <traci_server>
        <remote-port value="40253"/>
    </traci_server>

</configuration>
-->

<tripinfos xmlns:xsi="http://www.w3.org/2001/XMLSchema-instance" xsi:noNamespaceSchemaLocation="http://sumo.dlr.de/xsd/tripinfo_file.xsd">
    <tripinfo id="E_W_3" depart="4.00" departLane="E2TL_0" departPos="5.10" departSpeed="0.00" departDelay="4.00" arrival="117.00" arrivalLane="TL2W_0" arrivalPos="750.00" arrivalSpeed="14.56" duration="113.00" routeLength="1528.50" waitingTime="0.00" waitingCount="0" stopTime="0.00" timeLoss="11.13" rerouteNo="0" devices="tripinfo_E_W_3" vType="standard_car" speedFactor="1.08" vaporized=""/>
    <tripinfo id="E_W_2" depart="0.00" departLane="E2TL_0" departPos="5.10" departSpeed="0.00" departDelay="0.00" arrival="120.00" arrivalLane="TL2W_0" arrivalPos="750.00" arrivalSpeed="13.70" duration="120.00" routeLength="1528.50" waitingTime="0.00" waitingCount="0" stopTime="0.00" timeLoss="10.38" rerouteNo="0" devices="tripinfo_E_W_2" vType="standard_car" speedFactor="1.01" vaporized=""/>
    <tripinfo id="W_E_12" depart="5.00" departLane="W2TL_0" departPos="5.10" departSpeed="0.00" departDelay="5.00" arrival="121.00" arrivalLane="TL2E_0" arrivalPos="750.00" arrivalSpeed="14.19" duration="116.00" routeLength="1528.50" waitingTime="0.00" waitingCount="0" stopTime="0.00" timeLoss="10.77" rerouteNo="0" devices="tripinfo_W_E_12" vType="standard_car" speedFactor="1.05" vaporized=""/>
    <tripinfo id="S_E_4" depart="4.00" departLane="N2TL_0" departPos="5.10" departSpeed="0.00" departDelay="4.00" arrival="149.00" arrivalLane="TL2E_0" arrivalPos="750.00" arrivalSpeed="14.13" duration="145.00" routeLength="1524.57" waitingTime="16.00" waitingCount="1" stopTime="0.00" timeLoss="37.11" rerouteNo="0" devices="tripinfo_S_E_4" vType="standard_car" speedFactor="1.03" vaporized=""/>
    <tripinfo id="S_E_33" depart="44.00" departLane="N2TL_0" departPos="5.10" departSpeed="0.00" departDelay="43.00" arrival="151.00" arrivalLane="TL2E_1" arrivalPos="750.00" arrivalSpeed="16.18" duration="107.00" routeLength="1524.57" waitingTime="0.00" waitingCount="0" stopTime="0.00" timeLoss="12.37" rerouteNo="0" devices="tripinfo_S_E_33" vType="standard_car" speedFactor="1.17" vaporized=""/>
    <tripinfo id="S_E_14" depart="13.00" departLane="N2TL_0" departPos="5.10" departSpeed="0.00" departDelay="13.00" arrival="154.00" arrivalLane="TL2E_1" arrivalPos="750.00" arrivalSpeed="13.62" duration="141.00" routeLength="1524.57" waitingTime="9.00" waitingCount="1" stopTime="0.00" timeLoss="29.75" rerouteNo="0" devices="tripinfo_S_E_14" vType="standard_car" speedFactor="0.99" vaporized=""/>
    <tripinfo id="S_E_8" depart="8.00" departLane="N2TL_0" departPos="5.10" departSpeed="0.00" departDelay="8.00" arrival="155.00" arrivalLane="TL2E_0" arrivalPos="750.00" arrivalSpeed="12.84" duration="147.00" routeLength="1524.57" waitingTime="10.00" waitingCount="1" stopTime="0.00" timeLoss="29.51" rerouteNo="0" devices="tripinfo_S_E_8" vType="standard_car" speedFactor="0.94" vaporized=""/>
    <tripinfo id="E_S_6" depart="13.00" departLane="E2TL_0" departPos="5.10" departSpeed="0.00" departDelay="13.00" arrival="186.00" arrivalLane="TL2S_0" arrivalPos="750.00" arrivalSpeed="14.35" duration="173.00" routeLength="1524.57" waitingTime="44.00" waitingCount="1" stopTime="0.00" timeLoss="67.22" rerouteNo="0" devices="tripinfo_E_S_6" vType="standard_car" speedFactor="1.05" vaporized=""/>
    <tripinfo id="W_N_45" depart="56.00" departLane="W2TL_0" departPos="5.10" departSpeed="0.00" departDelay="55.00" arrival="190.00" arrivalLane="TL2N_1" arrivalPos="750.00" arrivalSpeed="14.68" duration="134.00" routeLength="1524.57" waitingTime="8.00" waitingCount="1" stopTime="0.00" timeLoss="32.56" rerouteNo="0" devices="tripinfo_W_N_45" vType="standard_car" speedFactor="1.09" vaporized=""/>
    <tripinfo id="W_N_1" depart="0.00" departLane="W2TL_0" departPos="5.10" departSpeed="0.00" departDelay="0.00" arrival="190.00" arrivalLane="TL2N_0" arrivalPos="750.00" arrivalSpeed="12.75" duration="190.00" routeLength="1524.57" waitingTime="53.00" waitingCount="1" stopTime="0.00" timeLoss="71.81" rerouteNo="0" devices="tripinfo_W_N_1" vType="standard_car" speedFactor="0.94" vaporized=""/>
    <tripinfo id="W_N_36" depart="42.00" departLane="W2TL_0" departPos="5.10" departSpeed="0.00" departDelay="41.00" arrival="194.00" arrivalLane="TL2N_0" arrivalPos="750.00" arrivalSpeed="13.48" duration="152.00" routeLength="1524.57" waitingTime="16.00" waitingCount="1" stopTime="0.00" timeLoss="37.79" rerouteNo="0" devices="tripinfo_W_N_36" vType="standard_car" speedFactor="0.97" vaporized=""/>
    <tripinfo id="E_S_54" depart="60.00" departLane="E2TL_0" departPos="5.10" departSpeed="0.00" departDelay="59.00" arrival="194.00" arrivalLane="TL2S_0" arrivalPos="750.00" arrivalSpeed="13.55" duration="134.00" routeLength="1524.57" waitingTime="0.00" waitingCount="0" stopTime="0.00" timeLoss="23.65" rerouteNo="0" devices="tripinfo_E_S_54" vType="standard_car" speedFactor="1.00" vaporized=""/>
    <tripinfo id="E_S_55" depart="65.00" departLane="E2TL_0" departPos="5.10" departSpeed="0.00" departDelay="64.00" arrival="196.00" arrivalLane="TL2S_1" arrivalPos="750.00" arrivalSpeed="13.54" duration="131.00" routeLength="1524.57" waitingTime="0.00" waitingCount="0" stopTime="0.00" timeLoss="19.77" rerouteNo="0" devices="tripinfo_E_S_55" vType="standard_car" speedFactor="1.00" vaporized=""/>
    <tripinfo id="W_N_16" depart="14.00" departLane="W2TL_0" departPos="5.10" departSpeed="0.00" departDelay="14.00" arrival="196.00" arrivalLane="TL2N_0" arrivalPos="750.00" arrivalSpeed="11.93" duration="182.00" routeLength="1524.57" waitingTime="37.00" waitingCount="1" stopTime="0.00" timeLoss="56.28" rerouteNo="0" devices="tripinfo_W_N_16" vType="standard_car" speedFactor="0.88" vaporized=""/>
    <tripinfo id="E_S_23" depart="41.00" departLane="E2TL_0" departPos="5.10" departSpeed="0.00" departDelay="41.00" arrival="198.00" arrivalLane="TL2S_0" arrivalPos="750.00" arrivalSpeed="12.02" duration="157.00" routeLength="1524.57" waitingTime="12.00" waitingCount="1" stopTime="0.00" timeLoss="32.71" rerouteNo="0" devices="tripinfo_E_S_23" vType="standard_car" speedFactor="0.89" vaporized=""/>
    <tripinfo id="E_S_5" depart="9.00" departLane="E2TL_0" departPos="5.10" departSpeed="0.00" departDelay="9.00" arrival="200.00" arrivalLane="TL2S_0" arrivalPos="750.00" arrivalSpeed="11.15" duration="191.00" routeLength="1524.57" waitingTime="39.00" waitingCount="1" stopTime="0.00" timeLoss="58.26" rerouteNo="0" devices="tripinfo_E_S_5" vType="standard_car" speedFactor="0.83" vaporized=""/>
    <tripinfo id="W_N_67" depart="80.00" departLane="W2TL_0" departPos="5.10" departSpeed="0.00" departDelay="78.00" arrival="211.00" arrivalLane="TL2N_0" arrivalPos="750.00" arrivalSpeed="12.25" duration="131.00" routeLength="1524.57" waitingTime="0.00" waitingCount="0" stopTime="0.00" timeLoss="10.04" rerouteNo="0" devices="tripinfo_W_N_67" vType="standard_car" speedFactor="0.91" vaporized=""/>
    <tripinfo id="E_S_64" depart="83.00" departLane="E2TL_0" departPos="5.10" departSpeed="0.00" departDelay="81.00" arrival="211.00" arrivalLane="TL2S_0" arrivalPos="750.00" arrivalSpeed="13.01" duration="128.00" routeLength="1524.57" waitingTime="0.00" waitingCount="0" stopTime="0.00" timeLoss="10.19" rerouteNo="0" devices="tripinfo_E_S_64" vType="standard_car" speedFactor="0.94" vaporized=""/>
    <tripinfo id="E_S_102" depart="92.00" departLane="E2TL_0" departPos="5.10" departSpeed="0.00" departDelay="87.00" arrival="218.00" arrivalLane="TL2S_0" arrivalPos="750.00" arrivalSpeed="13.17" duration="126.00" routeLength="1524.57" waitingTime="0.00" waitingCount="0" stopTime="0.00" timeLoss="11.56" rerouteNo="0" devices="tripinfo_E_S_102" vType="standard_car" speedFactor="0.97" vaporized=""/>
    <tripinfo id="E_S_118" depart="110.00" departLane="E2TL_0" departPos="5.10" departSpeed="0.00" departDelay="104.00" arrival="233.00" arrivalLane="TL2S_0" arrivalPos="750.00" arrivalSpeed="13.29" duration="123.00" routeLength="1524.57" waitingTime="0.00" waitingCount="0" stopTime="0.00" timeLoss="11.34" rerouteNo="0" devices="tripinfo_E_S_118" vType="standard_car" speedFactor="0.99" vaporized=""/>
    <tripinfo id="W_E_30" depart="37.00" departLane="W2TL_0" departPos="5.10" departSpeed="0.00" departDelay="36.00" arrival="249.00" arrivalLane="TL2E_0" arrivalPos="750.00" arrivalSpeed="16.29" duration="212.00" routeLength="1528.50" waitingTime="93.00" waitingCount="1" stopTime="0.00" timeLoss="117.85" rerouteNo="0" devices="tripinfo_W_E_30" vType="standard_car" speedFactor="1.18" vaporized=""/>
    <tripinfo id="W_E_13" depart="10.00" departLane="W2TL_0" departPos="5.10" departSpeed="0.00" departDelay="10.00" arrival="251.00" arrivalLane="TL2E_0" arrivalPos="750.00" arrivalSpeed="15.59" duration="241.00" routeLength="1528.50" waitingTime="118.00" waitingCount="1" stopTime="0.00" timeLoss="142.09" rerouteNo="0" devices="tripinfo_W_E_13" vType="standard_car" speedFactor="1.12" vaporized=""/>
    <tripinfo id="E_W_10" depart="28.00" departLane="E2TL_0" departPos="5.10" departSpeed="0.00" departDelay="28.00" arrival="251.00" arrivalLane="TL2W_0" arrivalPos="750.00" arrivalSpeed="14.65" duration="223.00" routeLength="1528.50" waitingTime="99.00" waitingCount="1" stopTime="0.00" timeLoss="121.73" rerouteNo="0" devices="tripinfo_E_W_10" vType="standard_car" speedFactor="1.09" vaporized=""/>
    <tripinfo id="E_W_28" depart="46.00" departLane="E2TL_0" departPos="5.10" departSpeed="0.00" departDelay="46.00" arrival="251.00" arrivalLane="TL2W_1" arrivalPos="750.00" arrivalSpeed="15.52" duration="205.00" routeLength="1528.50" waitingTime="83.00" waitingCount="1" stopTime="0.00" timeLoss="107.41" rerouteNo="0" devices="tripinfo_E_W_28" vType="standard_car" speedFactor="1.13" vaporized=""/>
    <tripinfo id="E_W_31" depart="51.00" departLane="E2TL_0" departPos="5.10" departSpeed="0.00" departDelay="50.00" arrival="252.00" arrivalLane="TL2W_2" arrivalPos="750.00" arrivalSpeed="15.64" duration="201.00" routeLength="1528.50" waitingTime="78.00" waitingCount="1" stopTime="0.00" timeLoss="104.81" rerouteNo="0" devices="tripinfo_E_W_31" vType="standard_car" speedFactor="1.15" vaporized=""/>
    <tripinfo id="W_E_20" depart="23.00" departLane="W2TL_0" departPos="5.10" departSpeed="0.00" departDelay="23.00" arrival="255.00" arrivalLane="TL2E_0" arrivalPos="750.00" arrivalSpeed="13.70" duration="232.00" routeLength="1528.50" waitingTime="101.00" waitingCount="1" stopTime="0.00" timeLoss="123.01" rerouteNo="0" devices="tripinfo_W_E_20" vType="standard_car" speedFactor="1.02" vaporized=""/>
    <tripinfo id="W_S_21" depart="28.00" departLane="W2TL_0" departPos="5.10" departSpeed="0.00" departDelay="28.00" arrival="257.00" arrivalLane="TL2S_0" arrivalPos="750.00" arrivalSpeed="13.81" duration="229.00" routeLength="1503.93" waitingTime="100.00" waitingCount="1" stopTime="0.00" timeLoss="120.77" rerouteNo="0" devices="tripinfo_W_S_21" vType="standard_car" speedFactor="1.01" vaporized=""/>
    <tripinfo id="E_N_11" depart="32.00" departLane="E2TL_0" departPos="5.10" departSpeed="0.00" departDelay="32.00" arrival="258.00" arrivalLane="TL2N_0" arrivalPos="750.00" arrivalSpeed="13.82" duration="226.00" routeLength="1503.93" waitingTime="94.00" waitingCount="1" stopTime="0.00" timeLoss="119.44" rerouteNo="0" devices="tripinfo_E_N_11" vType="standard_car" speedFactor="1.03" vaporized=""/>
    <tripinfo id="E_W_108" depart="102.00" departLane="E2TL_0" departPos="5.10" departSpeed="0.00" departDelay="97.00" arrival="259.00" arrivalLane="TL2W_2" arrivalPos="750.00" arrivalSpeed="14.30" duration="157.00" routeLength="1528.50" waitingTime="28.00" waitingCount="1" stopTime="0.00" timeLoss="53.42" rerouteNo="0" devices="tripinfo_E_W_108" vType="standard_car" speedFactor="1.06" vaporized=""/>
    <tripinfo id="E_W_52" depart="55.00" departLane="E2TL_0" departPos="5.10" departSpeed="0.00" departDelay="54.00" arrival="259.00" arrivalLane="TL2W_1" arrivalPos="750.00" arrivalSpeed="14.02" duration="204.00" routeLength="1528.50" waitingTime="71.00" waitingCount="1" stopTime="0.00" timeLoss="94.94" rerouteNo="0" devices="tripinfo_E_W_52" vType="standard_car" speedFactor="1.02" vaporized=""/>
    <tripinfo id="E_N_60" depart="78.00" departLane="E2TL_0" departPos="5.10" departSpeed="0.00" departDelay="76.00" arrival="260.00" arrivalLane="TL2N_1" arrivalPos="750.00" arrivalSpeed="14.93" duration="182.00" routeLength="1503.93" waitingTime="54.00" waitingCount="1" stopTime="0.00" timeLoss="80.12" rerouteNo="0" devices="tripinfo_E_N_60" vType="standard_car" speedFactor="1.08" vaporized=""/>
    <tripinfo id="E_W_145" depart="131.00" departLane="E2TL_0" departPos="5.10" departSpeed="0.00" departDelay="122.00" arrival="260.00" arrivalLane="TL2W_3" arrivalPos="750.00" arrivalSpeed="15.71" duration="129.00" routeLength="1528.50" waitingTime="3.00" waitingCount="1" stopTime="0.00" timeLoss="32.33" rerouteNo="0" devices="tripinfo_E_W_145" vType="standard_car" speedFactor="1.14" vaporized=""/>
    <tripinfo id="E_W_18" depart="37.00" departLane="E2TL_0" departPos="5.10" departSpeed="0.00" departDelay="37.00" arrival="260.00" arrivalLane="TL2W_0" arrivalPos="750.00" arrivalSpeed="12.96" duration="223.00" routeLength="1528.50" waitingTime="85.00" waitingCount="1" stopTime="0.00" timeLoss="104.56" rerouteNo="0" devices="tripinfo_E_W_18" vType="standard_car" speedFactor="0.94" vaporized=""/>
    <tripinfo id="E_W_105" depart="97.00" departLane="E2TL_0" departPos="5.10" departSpeed="0.00" departDelay="92.00" arrival="260.00" arrivalLane="TL2W_1" arrivalPos="750.00" arrivalSpeed="14.90" duration="163.00" routeLength="1528.50" waitingTime="34.00" waitingCount="1" stopTime="0.00" timeLoss="60.12" rerouteNo="0" devices="tripinfo_E_W_105" vType="standard_car" speedFactor="1.07" vaporized=""/>
    <tripinfo id="E_W_59" depart="73.00" departLane="E2TL_0" departPos="5.10" departSpeed="0.00" departDelay="71.00" arrival="261.00" arrivalLane="TL2W_2" arrivalPos="750.00" arrivalSpeed="13.43" duration="188.00" routeLength="1528.50" waitingTime="52.00" waitingCount="1" stopTime="0.00" timeLoss="74.26" rerouteNo="0" devices="tripinfo_E_W_59" vType="standard_car" speedFactor="0.97" vaporized=""/>
    <tripinfo id="W_E_63" depart="70.00" departLane="W2TL_0" departPos="5.10" departSpeed="0.00" departDelay="68.00" arrival="261.00" arrivalLane="TL2E_2" arrivalPos="750.00" arrivalSpeed="13.23" duration="191.00" routeLength="1528.50" waitingTime="54.00" waitingCount="1" stopTime="0.00" timeLoss="78.78" rerouteNo="0" devices="tripinfo_W_E_63" vType="standard_car" speedFactor="0.99" vaporized=""/>
    <tripinfo id="W_E_17" depart="18.00" departLane="W2TL_0" departPos="5.10" departSpeed="0.00" departDelay="18.00" arrival="261.00" arrivalLane="TL2E_0" arrivalPos="750.00" arrivalSpeed="13.04" duration="243.00" routeLength="1528.50" waitingTime="105.00" waitingCount="2" stopTime="0.00" timeLoss="126.01" rerouteNo="0" devices="tripinfo_W_E_17" vType="standard_car" speedFactor="0.94" vaporized=""/>
    <tripinfo id="W_E_27" depart="32.00" departLane="W2TL_0" departPos="5.10" departSpeed="0.00" departDelay="32.00" arrival="261.00" arrivalLane="TL2E_1" arrivalPos="750.00" arrivalSpeed="12.69" duration="229.00" routeLength="1528.50" waitingTime="90.00" waitingCount="1" stopTime="0.00" timeLoss="112.13" rerouteNo="0" devices="tripinfo_W_E_27" vType="standard_car" speedFactor="0.95" vaporized=""/>
    <tripinfo id="W_S_58" depart="65.00" departLane="W2TL_0" departPos="5.10" departSpeed="0.00" departDelay="63.00" arrival="261.00" arrivalLane="TL2S_0" arrivalPos="750.00" arrivalSpeed="13.88" duration="196.00" routeLength="1503.93" waitingTime="59.00" waitingCount="1" stopTime="0.00" timeLoss="88.96" rerouteNo="0" devices="tripinfo_W_S_58" vType="standard_car" speedFactor="1.02" vaporized=""/>
    <tripinfo id="W_S_73" depart="89.00" departLane="W2TL_0" departPos="5.10" departSpeed="0.00" departDelay="87.00" arrival="262.00" arrivalLane="TL2S_1" arrivalPos="750.00" arrivalSpeed="14.59" duration="173.00" routeLength="1503.93" waitingTime="44.00" waitingCount="1" stopTime="0.00" timeLoss="69.61" rerouteNo="0" devices="tripinfo_W_S_73" vType="standard_car" speedFactor="1.06" vaporized=""/>
    <tripinfo id="W_E_70" depart="84.00" departLane="W2TL_0" departPos="5.10" departSpeed="0.00" departDelay="82.00" arrival="262.00" arrivalLane="TL2E_3" arrivalPos="750.00" arrivalSpeed="14.01" duration="178.00" routeLength="1528.50" waitingTime="43.00" waitingCount="1" stopTime="0.00" timeLoss="69.73" rerouteNo="0" devices="tripinfo_W_E_70" vType="standard_car" speedFactor="1.02" vaporized=""/>
    <tripinfo id="E_W_119" depart="115.00" departLane="E2TL_0" departPos="5.10" departSpeed="0.00" departDelay="109.00" arrival="262.00" arrivalLane="TL2W_3" arrivalPos="750.00" arrivalSpeed="14.66" duration="147.00" routeLength="1528.50" waitingTime="16.00" waitingCount="1" stopTime="0.00" timeLoss="44.07" rerouteNo="0" devices="tripinfo_E_W_119" vType="standard_car" speedFactor="1.07" vaporized=""/>
    <tripinfo id="W_E_41" depart="51.00" departLane="W2TL_0" departPos="5.10" departSpeed="0.00" departDelay="50.00" arrival="262.00" arrivalLane="TL2E_1" arrivalPos="750.00" arrivalSpeed="13.24" duration="211.00" routeLength="1528.50" waitingTime="73.00" waitingCount="1" stopTime="0.00" timeLoss="95.71" rerouteNo="0" devices="tripinfo_W_E_41" vType="standard_car" speedFactor="0.96" vaporized=""/>
    <tripinfo id="E_W_136" depart="126.00" departLane="E2TL_0" departPos="5.10" departSpeed="0.00" departDelay="118.00" arrival="262.00" arrivalLane="TL2W_1" arrivalPos="750.00" arrivalSpeed="15.37" duration="136.00" routeLength="1528.50" waitingTime="9.00" waitingCount="1" stopTime="0.00" timeLoss="36.99" rerouteNo="0" devices="tripinfo_E_W_136" vType="standard_car" speedFactor="1.12" vaporized=""/>
    <tripinfo id="E_W_7" depart="18.00" departLane="E2TL_0" departPos="5.10" departSpeed="0.00" departDelay="18.00" arrival="263.00" arrivalLane="TL2W_0" arrivalPos="750.00" arrivalSpeed="12.05" duration="245.00" routeLength="1528.50" waitingTime="99.00" waitingCount="1" stopTime="0.00" timeLoss="120.15" rerouteNo="0" devices="tripinfo_E_W_7" vType="standard_car" speedFactor="0.89" vaporized=""/>
    <tripinfo id="W_E_39" depart="46.00" departLane="W2TL_0" departPos="5.10" departSpeed="0.00" departDelay="45.00" arrival="264.00" arrivalLane="TL2E_2" arrivalPos="750.00" arrivalSpeed="12.34" duration="218.00" routeLength="1528.50" waitingTime="73.00" waitingCount="1" stopTime="0.00" timeLoss="94.93" rerouteNo="0" devices="tripinfo_W_E_39" vType="standard_car" speedFactor="0.90" vaporized=""/>
    <tripinfo id="E_W_57" depart="69.00" departLane="E2TL_0" departPos="5.10" departSpeed="0.00" departDelay="68.00" arrival="264.00" arrivalLane="TL2W_0" arrivalPos="750.00" arrivalSpeed="12.84" duration="195.00" routeLength="1528.50" waitingTime="64.00" waitingCount="1" stopTime="0.00" timeLoss="98.68" rerouteNo="0" devices="tripinfo_E_W_57" vType="standard_car" speedFactor="1.14" vaporized=""/>
    <tripinfo id="E_W_113" depart="106.00" departLane="E2TL_0" departPos="5.10" departSpeed="0.00" departDelay="100.00" arrival="264.00" arrivalLane="TL2W_1" arrivalPos="750.00" arrivalSpeed="13.76" duration="158.00" routeLength="1528.50" waitingTime="24.00" waitingCount="1" stopTime="0.00" timeLoss="48.20" rerouteNo="0" devices="tripinfo_E_W_113" vType="standard_car" speedFactor="1.01" vaporized=""/>
    <tripinfo id="E_N_9" depart="23.00" departLane="E2TL_0" departPos="5.10" departSpeed="0.00" departDelay="23.00" arrival="264.00" arrivalLane="TL2N_0" arrivalPos="750.00" arrivalSpeed="11.44" duration="241.00" routeLength="1503.93" waitingTime="94.00" waitingCount="1" stopTime="0.00" timeLoss="113.54" rerouteNo="0" devices="tripinfo_E_N_9" vType="standard_car" speedFactor="0.86" vaporized=""/>
    <tripinfo id="W_E_114" depart="145.00" departLane="W2TL_0" departPos="5.10" departSpeed="0.00" departDelay="139.00" arrival="265.00" arrivalLane="TL2E_3" arrivalPos="750.00" arrivalSpeed="15.06" duration="120.00" routeLength="1528.50" waitingTime="0.00" waitingCount="0" stopTime="0.00" timeLoss="18.95" rerouteNo="0" devices="tripinfo_W_E_114" vType="standard_car" speedFactor="1.10" vaporized=""/>
    <tripinfo id="W_E_80" depart="99.00" departLane="W2TL_0" departPos="5.10" departSpeed="0.00" departDelay="96.00" arrival="265.00" arrivalLane="TL2E_2" arrivalPos="750.00" arrivalSpeed="12.67" duration="166.00" routeLength="1528.50" waitingTime="31.00" waitingCount="1" stopTime="0.00" timeLoss="59.42" rerouteNo="0" devices="tripinfo_W_E_80" vType="standard_car" speedFactor="1.03" vaporized=""/>
    <tripinfo id="W_E_76" depart="94.00" departLane="W2TL_0" departPos="5.10" departSpeed="0.00" departDelay="91.00" arrival="265.00" arrivalLane="TL2E_1" arrivalPos="750.00" arrivalSpeed="14.05" duration="171.00" routeLength="1528.50" waitingTime="37.00" waitingCount="1" stopTime="0.00" timeLoss="63.54" rerouteNo="0" devices="tripinfo_W_E_76" vType="standard_car" speedFactor="1.03" vaporized=""/>
    <tripinfo id="W_E_90" depart="112.00" departLane="W2TL_0" departPos="5.10" departSpeed="0.00" departDelay="108.00" arrival="267.00" arrivalLane="TL2E_2" arrivalPos="750.00" arrivalSpeed="13.14" duration="155.00" routeLength="1528.50" waitingTime="18.00" waitingCount="1" stopTime="0.00" timeLoss="46.23" rerouteNo="0" devices="tripinfo_W_E_90" vType="standard_car" speedFactor="1.02" vaporized=""/>
    <tripinfo id="W_E_66" depart="75.00" departLane="W2TL_0" departPos="5.10" departSpeed="0.00" departDelay="73.00" arrival="267.00" arrivalLane="TL2E_0" arrivalPos="750.00" arrivalSpeed="12.53" duration="192.00" routeLength="1528.50" waitingTime="48.00" waitingCount="1" stopTime="0.00" timeLoss="69.85" rerouteNo="0" devices="tripinfo_W_E_66" vType="standard_car" speedFactor="0.91" vaporized=""/>
    <tripinfo id="W_E_85" depart="103.00" departLane="W2TL_0" departPos="5.10" departSpeed="0.00" departDelay="100.00" arrival="268.00" arrivalLane="TL2E_1" arrivalPos="750.00" arrivalSpeed="13.43" duration="165.00" routeLength="1528.50" waitingTime="27.00" waitingCount="1" stopTime="0.00" timeLoss="51.51" rerouteNo="0" devices="tripinfo_W_E_85" vType="standard_car" speedFactor="0.98" vaporized=""/>
    <tripinfo id="E_N_101" depart="87.00" departLane="E2TL_0" departPos="5.10" departSpeed="0.00" departDelay="82.00" arrival="268.00" arrivalLane="TL2N_0" arrivalPos="750.00" arrivalSpeed="13.14" duration="181.00" routeLength="1503.93" waitingTime="44.00" waitingCount="1" stopTime="0.00" timeLoss="66.61" rerouteNo="0" devices="tripinfo_E_N_101" vType="standard_car" speedFactor="0.96" vaporized=""/>
    <tripinfo id="W_E_96" depart="126.00" departLane="W2TL_0" departPos="5.10" departSpeed="0.00" departDelay="122.00" arrival="269.00" arrivalLane="TL2E_3" arrivalPos="750.00" arrivalSpeed="13.93" duration="143.00" routeLength="1528.50" waitingTime="6.00" waitingCount="1" stopTime="0.00" timeLoss="33.31" rerouteNo="0" devices="tripinfo_W_E_96" vType="standard_car" speedFactor="1.01" vaporized=""/>
    <tripinfo id="W_E_107" depart="140.00" departLane="W2TL_0" departPos="5.10" departSpeed="0.00" departDelay="135.00" arrival="269.00" arrivalLane="TL2E_2" arrivalPos="750.00" arrivalSpeed="14.16" duration="129.00" routeLength="1528.50" waitingTime="0.00" waitingCount="0" stopTime="0.00" timeLoss="21.66" rerouteNo="0" devices="tripinfo_W_E_107" vType="standard_car" speedFactor="1.03" vaporized=""/>
    <tripinfo id="E_W_168" depart="145.00" departLane="E2TL_0" departPos="5.10" departSpeed="0.00" departDelay="134.00" arrival="269.00" arrivalLane="TL2W_0" arrivalPos="750.00" arrivalSpeed="13.24" duration="124.00" routeLength="1528.50" waitingTime="0.00" waitingCount="0" stopTime="0.00" timeLoss="11.50" rerouteNo="0" devices="tripinfo_E_W_168" vType="standard_car" speedFactor="0.98" vaporized=""/>
    <tripinfo id="W_E_87" depart="107.00" departLane="W2TL_0" departPos="5.10" departSpeed="0.00" departDelay="104.00" arrival="269.00" arrivalLane="TL2E_1" arrivalPos="750.00" arrivalSpeed="14.21" duration="162.00" routeLength="1528.50" waitingTime="27.00" waitingCount="1" stopTime="0.00" timeLoss="56.34" rerouteNo="0" devices="tripinfo_W_E_87" vType="standard_car" speedFactor="1.04" vaporized=""/>
    <tripinfo id="W_E_49" depart="61.00" departLane="W2TL_0" departPos="5.10" departSpeed="0.00" departDelay="60.00" arrival="270.00" arrivalLane="TL2E_0" arrivalPos="750.00" arrivalSpeed="11.50" duration="209.00" routeLength="1528.50" waitingTime="59.00" waitingCount="1" stopTime="0.00" timeLoss="79.50" rerouteNo="0" devices="tripinfo_W_E_49" vType="standard_car" speedFactor="0.85" vaporized=""/>
    <tripinfo id="W_E_125" depart="163.00" departLane="W2TL_0" departPos="5.10" departSpeed="0.00" departDelay="156.00" arrival="271.00" arrivalLane="TL2E_2" arrivalPos="750.00" arrivalSpeed="15.93" duration="108.00" routeLength="1528.50" waitingTime="0.00" waitingCount="0" stopTime="0.00" timeLoss="12.42" rerouteNo="0" devices="tripinfo_W_E_125" vType="standard_car" speedFactor="1.15" vaporized=""/>
    <tripinfo id="E_W_120" depart="121.00" departLane="E2TL_0" departPos="5.10" departSpeed="0.00" departDelay="115.00" arrival="271.00" arrivalLane="TL2W_0" arrivalPos="750.00" arrivalSpeed="12.72" duration="150.00" routeLength="1528.50" waitingTime="10.00" waitingCount="1" stopTime="0.00" timeLoss="32.47" rerouteNo="0" devices="tripinfo_E_W_120" vType="standard_car" speedFactor="0.94" vaporized=""/>
    <tripinfo id="E_N_170" depart="155.00" departLane="E2TL_0" departPos="5.10" departSpeed="0.00" departDelay="144.00" arrival="271.00" arrivalLane="TL2N_0" arrivalPos="750.00" arrivalSpeed="14.82" duration="116.00" routeLength="1503.93" waitingTime="0.00" waitingCount="0" stopTime="0.00" timeLoss="14.89" rerouteNo="0" devices="tripinfo_E_N_170" vType="standard_car" speedFactor="1.09" vaporized=""/>
    <tripinfo id="E_W_178" depart="159.00" departLane="E2TL_0" departPos="5.10" departSpeed="0.00" departDelay="147.00" arrival="272.00" arrivalLane="TL2W_1" arrivalPos="750.00" arrivalSpeed="14.82" duration="113.00" routeLength="1528.50" waitingTime="0.00" waitingCount="0" stopTime="0.00" timeLoss="11.34" rerouteNo="0" devices="tripinfo_E_W_178" vType="standard_car" speedFactor="1.08" vaporized=""/>
    <tripinfo id="W_E_122" depart="154.00" departLane="W2TL_0" departPos="5.10" departSpeed="0.00" departDelay="147.00" arrival="272.00" arrivalLane="TL2E_1" arrivalPos="750.00" arrivalSpeed="14.27" duration="118.00" routeLength="1528.50" waitingTime="0.00" waitingCount="0" stopTime="0.00" timeLoss="10.49" rerouteNo="0" devices="tripinfo_W_E_122" vType="standard_car" speedFactor="1.03" vaporized=""/>
    <tripinfo id="W_E_103" depart="135.00" departLane="W2TL_0" departPos="5.10" departSpeed="0.00" departDelay="130.00" arrival="273.00" arrivalLane="TL2E_0" arrivalPos="750.00" arrivalSpeed="13.00" duration="138.00" routeLength="1528.50" waitingTime="0.00" waitingCount="0" stopTime="0.00" timeLoss="21.71" rerouteNo="0" devices="tripinfo_W_E_103" vType="standard_car" speedFactor="0.95" vaporized=""/>
    <tripinfo id="W_S_124" depart="158.00" departLane="W2TL_0" departPos="5.10" departSpeed="0.00" departDelay="151.00" arrival="276.00" arrivalLane="TL2S_0" arrivalPos="750.00" arrivalSpeed="14.67" duration="118.00" routeLength="1503.93" waitingTime="0.00" waitingCount="0" stopTime="0.00" timeLoss="15.33" rerouteNo="0" devices="tripinfo_W_S_124" vType="standard_car" speedFactor="1.06" vaporized=""/>
    <tripinfo id="W_E_92" depart="121.00" departLane="W2TL_0" departPos="5.10" departSpeed="0.00" departDelay="117.00" arrival="280.00" arrivalLane="TL2E_0" arrivalPos="750.00" arrivalSpeed="11.22" duration="159.00" routeLength="1528.50" waitingTime="5.00" waitingCount="1" stopTime="0.00" timeLoss="26.55" rerouteNo="0" devices="tripinfo_W_E_92" vType="standard_car" speedFactor="0.83" vaporized=""/>
    <tripinfo id="W_E_115" depart="149.00" departLane="W2TL_0" departPos="5.10" departSpeed="0.00" departDelay="143.00" arrival="280.00" arrivalLane="TL2E_1" arrivalPos="750.00" arrivalSpeed="12.75" duration="131.00" routeLength="1528.50" waitingTime="0.00" waitingCount="0" stopTime="0.00" timeLoss="10.96" rerouteNo="0" devices="tripinfo_W_E_115" vType="standard_car" speedFactor="0.92" vaporized=""/>
    <tripinfo id="S_N_19" depart="4.00" departLane="S2TL_0" departPos="5.10" departSpeed="0.00" departDelay="4.00" arrival="298.00" arrivalLane="TL2N_0" arrivalPos="750.00" arrivalSpeed="15.97" duration="294.00" routeLength="1528.50" waitingTime="175.00" waitingCount="2" stopTime="0.00" timeLoss="198.73" rerouteNo="0" devices="tripinfo_S_N_19" vType="standard_car" speedFactor="1.16" vaporized=""/>
    <tripinfo id="N_W_0" depart="0.00" departLane="N2TL_0" departPos="5.10" departSpeed="0.00" departDelay="0.00" arrival="300.00" arrivalLane="TL2W_0" arrivalPos="750.00" arrivalSpeed="14.69" duration="300.00" routeLength="1503.93" waitingTime="176.00" waitingCount="1" stopTime="0.00" timeLoss="196.67" rerouteNo="0" devices="tripinfo_N_W_0" vType="standard_car" speedFactor="1.06" vaporized=""/>