<?xml version="1.0" encoding="UTF-8"?>

<!-- generated on Tue Feb 26 10:57:56 2019 by Eclipse SUMO Version 1.1.0
<configuration xmlns:xsi="http://www.w3.org/2001/XMLSchema-instance" xsi:noNamespaceSchemaLocation="http://sumo.dlr.de/xsd/sumoConfiguration.xsd">

    <input>
        <net-file value="environment/tlcs.net.xml"/>
        <route-files value="environment/tlcs_test.rou.xml"/>
    </input>

    <output>
        <tripinfo-output value="environment/tripinfo.xml"/>
    </output>

    <time>
        <begin value="0"/>
    </time>

    <processing>
        <time-to-teleport value="-1"/>
    </processing>

    <report>
        <no-step-log value="true"/>
    </report>

    <traci_server>
        <remote-port value="51381"/>
    </traci_server>

</configuration>
-->

<tripinfos xmlns:xsi="http://www.w3.org/2001/XMLSchema-instance" xsi:noNamespaceSchemaLocation="http://sumo.dlr.de/xsd/tripinfo_file.xsd">
    <tripinfo id="S_E_4" depart="4.00" departLane="N2TL_0" departPos="5.10" departSpeed="0.00" departDelay="4.00" arrival="123.00" arrivalLane="TL2E_0" arrivalPos="750.00" arrivalSpeed="14.13" duration="119.00" routeLength="1524.57" waitingTime="0.00" waitingCount="0" stopTime="0.00" timeLoss="11.47" rerouteNo="0" devices="tripinfo_S_E_4" vType="standard_car" speedFactor="1.03" vaporized=""/>
    <tripinfo id="S_E_14" depart="13.00" departLane="N2TL_0" departPos="5.10" departSpeed="0.00" departDelay="13.00" arrival="136.00" arrivalLane="TL2E_1" arrivalPos="750.00" arrivalSpeed="13.74" duration="123.00" routeLength="1524.57" waitingTime="0.00" waitingCount="0" stopTime="0.00" timeLoss="10.87" rerouteNo="0" devices="tripinfo_S_E_14" vType="standard_car" speedFactor="0.99" vaporized=""/>
    <tripinfo id="S_E_8" depart="8.00" departLane="N2TL_0" departPos="5.10" departSpeed="0.00" departDelay="8.00" arrival="137.00" arrivalLane="TL2E_0" arrivalPos="750.00" arrivalSpeed="12.65" duration="129.00" routeLength="1524.57" waitingTime="0.00" waitingCount="0" stopTime="0.00" timeLoss="10.60" rerouteNo="0" devices="tripinfo_S_E_8" vType="standard_car" speedFactor="0.94" vaporized=""/>
    <tripinfo id="E_S_6" depart="13.00" departLane="E2TL_0" departPos="5.10" departSpeed="0.00" departDelay="13.00" arrival="197.00" arrivalLane="TL2S_0" arrivalPos="750.00" arrivalSpeed="14.32" duration="184.00" routeLength="1524.57" waitingTime="56.00" waitingCount="1" stopTime="0.00" timeLoss="77.81" rerouteNo="0" devices="tripinfo_E_S_6" vType="standard_car" speedFactor="1.05" vaporized=""/>
    <tripinfo id="W_N_45" depart="56.00" departLane="W2TL_0" departPos="5.10" departSpeed="0.00" departDelay="55.00" arrival="203.00" arrivalLane="TL2N_1" arrivalPos="750.00" arrivalSpeed="14.63" duration="147.00" routeLength="1524.57" waitingTime="20.00" waitingCount="1" stopTime="0.00" timeLoss="44.81" rerouteNo="0" devices="tripinfo_W_N_45" vType="standard_car" speedFactor="1.09" vaporized=""/>
    <tripinfo id="W_N_1" depart="0.00" departLane="W2TL_0" departPos="5.10" departSpeed="0.00" departDelay="0.00" arrival="204.00" arrivalLane="TL2N_0" arrivalPos="750.00" arrivalSpeed="13.02" duration="204.00" routeLength="1524.57" waitingTime="63.00" waitingCount="1" stopTime="0.00" timeLoss="85.61" rerouteNo="0" devices="tripinfo_W_N_1" vType="standard_car" speedFactor="0.94" vaporized=""/>
    <tripinfo id="W_N_36" depart="42.00" departLane="W2TL_0" departPos="5.10" departSpeed="0.00" departDelay="41.00" arrival="205.00" arrivalLane="TL2N_1" arrivalPos="750.00" arrivalSpeed="13.04" duration="163.00" routeLength="1524.57" waitingTime="28.00" waitingCount="1" stopTime="0.00" timeLoss="49.64" rerouteNo="0" devices="tripinfo_W_N_36" vType="standard_car" speedFactor="0.97" vaporized=""/>
    <tripinfo id="E_S_54" depart="60.00" departLane="E2TL_0" departPos="5.10" departSpeed="0.00" departDelay="59.00" arrival="205.00" arrivalLane="TL2S_0" arrivalPos="750.00" arrivalSpeed="13.63" duration="145.00" routeLength="1524.57" waitingTime="13.00" waitingCount="1" stopTime="0.00" timeLoss="35.05" rerouteNo="0" devices="tripinfo_E_S_54" vType="standard_car" speedFactor="1.00" vaporized=""/>
    <tripinfo id="E_S_55" depart="65.00" departLane="E2TL_0" departPos="5.10" departSpeed="0.00" departDelay="64.00" arrival="207.00" arrivalLane="TL2S_1" arrivalPos="750.00" arrivalSpeed="13.56" duration="142.00" routeLength="1524.57" waitingTime="10.00" waitingCount="1" stopTime="0.00" timeLoss="31.23" rerouteNo="0" devices="tripinfo_E_S_55" vType="standard_car" speedFactor="1.00" vaporized=""/>
    <tripinfo id="W_N_16" depart="14.00" departLane="W2TL_0" departPos="5.10" departSpeed="0.00" departDelay="14.00" arrival="209.00" arrivalLane="TL2N_0" arrivalPos="750.00" arrivalSpeed="12.07" duration="195.00" routeLength="1524.57" waitingTime="49.00" waitingCount="1" stopTime="0.00" timeLoss="69.29" rerouteNo="0" devices="tripinfo_W_N_16" vType="standard_car" speedFactor="0.88" vaporized=""/>
    <tripinfo id="E_S_23" depart="41.00" departLane="E2TL_0" departPos="5.10" departSpeed="0.00" departDelay="41.00" arrival="209.00" arrivalLane="TL2S_0" arrivalPos="750.00" arrivalSpeed="12.33" duration="168.00" routeLength="1524.57" waitingTime="23.00" waitingCount="1" stopTime="0.00" timeLoss="44.16" rerouteNo="0" devices="tripinfo_E_S_23" vType="standard_car" speedFactor="0.89" vaporized=""/>
    <tripinfo id="E_S_5" depart="9.00" departLane="E2TL_0" departPos="5.10" departSpeed="0.00" departDelay="9.00" arrival="211.00" arrivalLane="TL2S_0" arrivalPos="750.00" arrivalSpeed="11.14" duration="202.00" routeLength="1524.57" waitingTime="51.00" waitingCount="1" stopTime="0.00" timeLoss="69.25" rerouteNo="0" devices="tripinfo_E_S_5" vType="standard_car" speedFactor="0.83" vaporized=""/>
    <tripinfo id="W_N_67" depart="79.00" departLane="W2TL_0" departPos="5.10" departSpeed="0.00" departDelay="77.00" arrival="212.00" arrivalLane="TL2N_0" arrivalPos="750.00" arrivalSpeed="12.50" duration="133.00" routeLength="1524.57" waitingTime="0.00" waitingCount="0" stopTime="0.00" timeLoss="12.22" rerouteNo="0" devices="tripinfo_W_N_67" vType="standard_car" speedFactor="0.91" vaporized=""/>
    <tripinfo id="E_S_64" depart="83.00" departLane="E2TL_0" departPos="5.10" departSpeed="0.00" departDelay="81.00" arrival="213.00" arrivalLane="TL2S_0" arrivalPos="750.00" arrivalSpeed="12.96" duration="130.00" routeLength="1524.57" waitingTime="0.00" waitingCount="0" stopTime="0.00" timeLoss="12.37" rerouteNo="0" devices="tripinfo_E_S_64" vType="standard_car" speedFactor="0.94" vaporized=""/>
    <tripinfo id="E_S_102" depart="93.00" departLane="E2TL_0" departPos="5.10" departSpeed="0.00" departDelay="88.00" arrival="217.00" arrivalLane="TL2S_0" arrivalPos="750.00" arrivalSpeed="13.22" duration="124.00" routeLength="1524.57" waitingTime="0.00" waitingCount="0" stopTime="0.00" timeLoss="10.15" rerouteNo="0" devices="tripinfo_E_S_102" vType="standard_car" speedFactor="0.97" vaporized=""/>
    <tripinfo id="W_E_13" depart="10.00" departLane="W2TL_0" departPos="5.10" departSpeed="0.00" departDelay="10.00" arrival="243.00" arrivalLane="TL2E_0" arrivalPos="750.00" arrivalSpeed="15.45" duration="233.00" routeLength="1528.50" waitingTime="112.00" waitingCount="1" stopTime="0.00" timeLoss="134.95" rerouteNo="0" devices="tripinfo_W_E_13" vType="standard_car" speedFactor="1.12" vaporized=""/>
    <tripinfo id="W_E_30" depart="37.00" departLane="W2TL_0" departPos="5.10" departSpeed="0.00" departDelay="36.00" arrival="244.00" arrivalLane="TL2E_1" arrivalPos="750.00" arrivalSpeed="16.05" duration="207.00" routeLength="1528.50" waitingTime="87.00" waitingCount="1" stopTime="0.00" timeLoss="113.52" rerouteNo="0" devices="tripinfo_W_E_30" vType="standard_car" speedFactor="1.18" vaporized=""/>
    <tripinfo id="E_W_10" depart="28.00" departLane="E2TL_0" departPos="5.10" departSpeed="0.00" departDelay="28.00" arrival="244.00" arrivalLane="TL2W_0" arrivalPos="750.00" arrivalSpeed="14.88" duration="216.00" routeLength="1528.50" waitingTime="92.00" waitingCount="1" stopTime="0.00" timeLoss="115.01" rerouteNo="0" devices="tripinfo_E_W_10" vType="standard_car" speedFactor="1.09" vaporized=""/>
    <tripinfo id="E_W_28" depart="46.00" departLane="E2TL_0" departPos="5.10" departSpeed="0.00" departDelay="46.00" arrival="245.00" arrivalLane="TL2W_1" arrivalPos="750.00" arrivalSpeed="15.37" duration="199.00" routeLength="1528.50" waitingTime="75.00" waitingCount="1" stopTime="0.00" timeLoss="100.83" rerouteNo="0" devices="tripinfo_E_W_28" vType="standard_car" speedFactor="1.13" vaporized=""/>
    <tripinfo id="E_W_3" depart="4.00" departLane="E2TL_0" departPos="5.10" departSpeed="0.00" departDelay="4.00" arrival="246.00" arrivalLane="TL2W_1" arrivalPos="750.00" arrivalSpeed="14.89" duration="242.00" routeLength="1528.50" waitingTime="116.00" waitingCount="1" stopTime="0.00" timeLoss="140.07" rerouteNo="0" devices="tripinfo_E_W_3" vType="standard_car" speedFactor="1.08" vaporized=""/>
    <tripinfo id="W_E_12" depart="5.00" departLane="W2TL_0" departPos="5.10" departSpeed="0.00" departDelay="5.00" arrival="246.00" arrivalLane="TL2E_0" arrivalPos="750.00" arrivalSpeed="14.10" duration="241.00" routeLength="1528.50" waitingTime="113.00" waitingCount="1" stopTime="0.00" timeLoss="135.37" rerouteNo="0" devices="tripinfo_W_E_12" vType="standard_car" speedFactor="1.05" vaporized=""/>
    <tripinfo id="E_W_2" depart="0.00" departLane="E2TL_0" departPos="5.10" departSpeed="0.00" departDelay="0.00" arrival="247.00" arrivalLane="TL2W_0" arrivalPos="750.00" arrivalSpeed="13.58" duration="247.00" routeLength="1528.50" waitingTime="118.00" waitingCount="1" stopTime="0.00" timeLoss="137.94" rerouteNo="0" devices="tripinfo_E_W_2" vType="standard_car" speedFactor="1.01" vaporized=""/>
    <tripinfo id="W_E_20" depart="23.00" departLane="W2TL_0" departPos="5.10" departSpeed="0.00" departDelay="23.00" arrival="248.00" arrivalLane="TL2E_0" arrivalPos="750.00" arrivalSpeed="13.81" duration="225.00" routeLength="1528.50" waitingTime="93.00" waitingCount="1" stopTime="0.00" timeLoss="116.30" rerouteNo="0" devices="tripinfo_W_E_20" vType="standard_car" speedFactor="1.02" vaporized=""/>
    <tripinfo id="W_S_21" depart="28.00" departLane="W2TL_0" departPos="5.10" departSpeed="0.00" departDelay="28.00" arrival="250.00" arrivalLane="TL2S_0" arrivalPos="750.00" arrivalSpeed="13.60" duration="222.00" routeLength="1503.93" waitingTime="92.00" waitingCount="1" stopTime="0.00" timeLoss="113.85" rerouteNo="0" devices="tripinfo_W_S_21" vType="standard_car" speedFactor="1.01" vaporized=""/>
    <tripinfo id="E_W_105" depart="97.00" departLane="E2TL_0" departPos="5.10" departSpeed="0.00" departDelay="92.00" arrival="251.00" arrivalLane="TL2W_2" arrivalPos="750.00" arrivalSpeed="14.61" duration="154.00" routeLength="1528.50" waitingTime="26.00" waitingCount="2" stopTime="0.00" timeLoss="51.20" rerouteNo="0" devices="tripinfo_E_W_105" vType="standard_car" speedFactor="1.07" vaporized=""/>
    <tripinfo id="E_W_52" depart="55.00" departLane="E2TL_0" departPos="5.10" departSpeed="0.00" departDelay="54.00" arrival="252.00" arrivalLane="TL2W_0" arrivalPos="750.00" arrivalSpeed="13.89" duration="197.00" routeLength="1528.50" waitingTime="64.00" waitingCount="1" stopTime="0.00" timeLoss="87.81" rerouteNo="0" devices="tripinfo_E_W_52" vType="standard_car" speedFactor="1.02" vaporized=""/>
    <tripinfo id="E_N_11" depart="32.00" departLane="E2TL_0" departPos="5.10" departSpeed="0.00" departDelay="32.00" arrival="252.00" arrivalLane="TL2N_0" arrivalPos="750.00" arrivalSpeed="13.94" duration="220.00" routeLength="1503.93" waitingTime="87.00" waitingCount="1" stopTime="0.00" timeLoss="112.62" rerouteNo="0" devices="tripinfo_E_N_11" vType="standard_car" speedFactor="1.03" vaporized=""/>
    <tripinfo id="E_N_60" depart="78.00" departLane="E2TL_0" departPos="5.10" departSpeed="0.00" departDelay="76.00" arrival="253.00" arrivalLane="TL2N_1" arrivalPos="750.00" arrivalSpeed="14.62" duration="175.00" routeLength="1503.93" waitingTime="49.00" waitingCount="1" stopTime="0.00" timeLoss="74.23" rerouteNo="0" devices="tripinfo_E_N_60" vType="standard_car" speedFactor="1.08" vaporized=""/>
    <tripinfo id="E_W_136" depart="126.00" departLane="E2TL_0" departPos="5.10" departSpeed="0.00" departDelay="118.00" arrival="253.00" arrivalLane="TL2W_2" arrivalPos="750.00" arrivalSpeed="15.07" duration="127.00" routeLength="1528.50" waitingTime="3.00" waitingCount="1" stopTime="0.00" timeLoss="28.05" rerouteNo="0" devices="tripinfo_E_W_136" vType="standard_car" speedFactor="1.12" vaporized=""/>
    <tripinfo id="W_E_27" depart="32.00" departLane="W2TL_0" departPos="5.10" departSpeed="0.00" departDelay="32.00" arrival="253.00" arrivalLane="TL2E_1" arrivalPos="750.00" arrivalSpeed="13.18" duration="221.00" routeLength="1528.50" waitingTime="80.00" waitingCount="1" stopTime="0.00" timeLoss="104.45" rerouteNo="0" devices="tripinfo_W_E_27" vType="standard_car" speedFactor="0.95" vaporized=""/>
    <tripinfo id="W_E_63" depart="70.00" departLane="W2TL_0" departPos="5.10" departSpeed="0.00" departDelay="68.00" arrival="253.00" arrivalLane="TL2E_2" arrivalPos="750.00" arrivalSpeed="13.29" duration="183.00" routeLength="1528.50" waitingTime="50.00" waitingCount="1" stopTime="0.00" timeLoss="71.49" rerouteNo="0" devices="tripinfo_W_E_63" vType="standard_car" speedFactor="0.99" vaporized=""/>
    <tripinfo id="W_E_17" depart="18.00" departLane="W2TL_0" departPos="5.10" departSpeed="0.00" departDelay="18.00" arrival="253.00" arrivalLane="TL2E_0" arrivalPos="750.00" arrivalSpeed="12.67" duration="235.00" routeLength="1528.50" waitingTime="98.00" waitingCount="2" stopTime="0.00" timeLoss="117.93" rerouteNo="0" devices="tripinfo_W_E_17" vType="standard_car" speedFactor="0.94" vaporized=""/>
    <tripinfo id="W_S_58" depart="65.00" departLane="W2TL_0" departPos="5.10" departSpeed="0.00" departDelay="63.00" arrival="254.00" arrivalLane="TL2S_0" arrivalPos="750.00" arrivalSpeed="14.04" duration="189.00" routeLength="1503.93" waitingTime="49.00" waitingCount="1" stopTime="0.00" timeLoss="82.06" rerouteNo="0" devices="tripinfo_W_S_58" vType="standard_car" speedFactor="1.02" vaporized=""/>
    <tripinfo id="W_S_73" depart="87.00" departLane="W2TL_0" departPos="5.10" departSpeed="0.00" departDelay="85.00" arrival="255.00" arrivalLane="TL2S_1" arrivalPos="750.00" arrivalSpeed="14.23" duration="168.00" routeLength="1503.93" waitingTime="38.00" waitingCount="1" stopTime="0.00" timeLoss="64.70" rerouteNo="0" devices="tripinfo_W_S_73" vType="standard_car" speedFactor="1.06" vaporized=""/>
    <tripinfo id="W_E_76" depart="92.00" departLane="W2TL_0" departPos="5.10" departSpeed="0.00" departDelay="89.00" arrival="255.00" arrivalLane="TL2E_3" arrivalPos="750.00" arrivalSpeed="14.12" duration="163.00" routeLength="1528.50" waitingTime="31.00" waitingCount="1" stopTime="0.00" timeLoss="55.71" rerouteNo="0" devices="tripinfo_W_E_76" vType="standard_car" speedFactor="1.03" vaporized=""/>
    <tripinfo id="E_W_31" depart="51.00" departLane="E2TL_0" departPos="5.10" departSpeed="0.00" departDelay="50.00" arrival="255.00" arrivalLane="TL2W_1" arrivalPos="750.00" arrivalSpeed="15.84" duration="204.00" routeLength="1528.50" waitingTime="75.00" waitingCount="1" stopTime="0.00" timeLoss="108.67" rerouteNo="0" devices="tripinfo_E_W_31" vType="standard_car" speedFactor="1.15" vaporized=""/>
    <tripinfo id="W_E_41" depart="51.00" departLane="W2TL_0" departPos="5.10" departSpeed="0.00" departDelay="50.00" arrival="255.00" arrivalLane="TL2E_0" arrivalPos="750.00" arrivalSpeed="12.85" duration="204.00" routeLength="1528.50" waitingTime="67.00" waitingCount="1" stopTime="0.00" timeLoss="88.95" rerouteNo="0" devices="tripinfo_W_E_41" vType="standard_car" speedFactor="0.96" vaporized=""/>
    <tripinfo id="E_W_18" depart="37.00" departLane="E2TL_0" departPos="5.10" departSpeed="0.00" departDelay="37.00" arrival="255.00" arrivalLane="TL2W_0" arrivalPos="750.00" arrivalSpeed="12.71" duration="218.00" routeLength="1528.50" waitingTime="78.00" waitingCount="1" stopTime="0.00" timeLoss="99.81" rerouteNo="0" devices="tripinfo_E_W_18" vType="standard_car" speedFactor="0.94" vaporized=""/>
    <tripinfo id="E_W_108" depart="103.00" departLane="E2TL_0" departPos="5.10" departSpeed="0.00" departDelay="98.00" arrival="256.00" arrivalLane="TL2W_3" arrivalPos="750.00" arrivalSpeed="14.60" duration="153.00" routeLength="1528.50" waitingTime="23.00" waitingCount="1" stopTime="0.00" timeLoss="49.56" rerouteNo="0" devices="tripinfo_E_W_108" vType="standard_car" speedFactor="1.06" vaporized=""/>
    <tripinfo id="E_W_113" depart="107.00" departLane="E2TL_0" departPos="5.10" departSpeed="0.00" departDelay="101.00" arrival="256.00" arrivalLane="TL2W_2" arrivalPos="750.00" arrivalSpeed="13.98" duration="149.00" routeLength="1528.50" waitingTime="15.00" waitingCount="1" stopTime="0.00" timeLoss="39.01" rerouteNo="0" devices="tripinfo_E_W_113" vType="standard_car" speedFactor="1.01" vaporized=""/>
    <tripinfo id="W_E_87" depart="107.00" departLane="W2TL_0" departPos="5.10" departSpeed="0.00" departDelay="104.00" arrival="256.00" arrivalLane="TL2E_1" arrivalPos="750.00" arrivalSpeed="14.19" duration="149.00" routeLength="1528.50" waitingTime="16.00" waitingCount="1" stopTime="0.00" timeLoss="42.86" rerouteNo="0" devices="tripinfo_W_E_87" vType="standard_car" speedFactor="1.04" vaporized=""/>
    <tripinfo id="E_W_57" depart="69.00" departLane="E2TL_0" departPos="5.10" departSpeed="0.00" departDelay="68.00" arrival="257.00" arrivalLane="TL2W_2" arrivalPos="750.00" arrivalSpeed="14.54" duration="188.00" routeLength="1528.50" waitingTime="57.00" waitingCount="1" stopTime="0.00" timeLoss="91.37" rerouteNo="0" devices="tripinfo_E_W_57" vType="standard_car" speedFactor="1.14" vaporized=""/>
    <tripinfo id="E_W_7" depart="18.00" departLane="E2TL_0" departPos="5.10" departSpeed="0.00" departDelay="18.00" arrival="257.00" arrivalLane="TL2W_0" arrivalPos="750.00" arrivalSpeed="12.04" duration="239.00" routeLength="1528.50" waitingTime="94.00" waitingCount="1" stopTime="0.00" timeLoss="113.99" rerouteNo="0" devices="tripinfo_E_W_7" vType="standard_car" speedFactor="0.89" vaporized=""/>
    <tripinfo id="W_E_70" depart="83.00" departLane="W2TL_0" departPos="5.10" departSpeed="0.00" departDelay="81.00" arrival="258.00" arrivalLane="TL2E_2" arrivalPos="750.00" arrivalSpeed="13.93" duration="175.00" routeLength="1528.50" waitingTime="39.00" waitingCount="1" stopTime="0.00" timeLoss="67.05" rerouteNo="0" devices="tripinfo_W_E_70" vType="standard_car" speedFactor="1.02" vaporized=""/>
    <tripinfo id="E_W_119" depart="117.00" departLane="E2TL_0" departPos="5.10" departSpeed="0.00" departDelay="111.00" arrival="258.00" arrivalLane="TL2W_1" arrivalPos="750.00" arrivalSpeed="14.38" duration="141.00" routeLength="1528.50" waitingTime="10.00" waitingCount="1" stopTime="0.00" timeLoss="38.04" rerouteNo="0" devices="tripinfo_E_W_119" vType="standard_car" speedFactor="1.07" vaporized=""/>
    <tripinfo id="E_W_59" depart="73.00" departLane="E2TL_0" departPos="5.10" departSpeed="0.00" departDelay="71.00" arrival="258.00" arrivalLane="TL2W_0" arrivalPos="750.00" arrivalSpeed="12.78" duration="185.00" routeLength="1528.50" waitingTime="49.00" waitingCount="1" stopTime="0.00" timeLoss="71.32" rerouteNo="0" devices="tripinfo_E_W_59" vType="standard_car" speedFactor="0.97" vaporized=""/>
    <tripinfo id="W_E_66" depart="74.00" departLane="W2TL_0" departPos="5.10" departSpeed="0.00" departDelay="72.00" arrival="259.00" arrivalLane="TL2E_1" arrivalPos="750.00" arrivalSpeed="12.11" duration="185.00" routeLength="1528.50" waitingTime="42.00" waitingCount="1" stopTime="0.00" timeLoss="63.53" rerouteNo="0" devices="tripinfo_W_E_66" vType="standard_car" speedFactor="0.91" vaporized=""/>
    <tripinfo id="E_N_9" depart="23.00" departLane="E2TL_0" departPos="5.10" departSpeed="0.00" departDelay="23.00" arrival="259.00" arrivalLane="TL2N_0" arrivalPos="750.00" arrivalSpeed="11.66" duration="236.00" routeLength="1503.93" waitingTime="88.00" waitingCount="1" stopTime="0.00" timeLoss="108.57" rerouteNo="0" devices="tripinfo_E_N_9" vType="standard_car" speedFactor="0.86" vaporized=""/>
    <tripinfo id="W_E_107" depart="140.00" departLane="W2TL_0" departPos="5.10" departSpeed="0.00" departDelay="135.00" arrival="260.00" arrivalLane="TL2E_2" arrivalPos="750.00" arrivalSpeed="13.98" duration="120.00" routeLength="1528.50" waitingTime="0.00" waitingCount="0" stopTime="0.00" timeLoss="13.01" rerouteNo="0" devices="tripinfo_W_E_107" vType="standard_car" speedFactor="1.03" vaporized=""/>
    <tripinfo id="W_E_39" depart="46.00" departLane="W2TL_0" departPos="5.10" departSpeed="0.00" departDelay="45.00" arrival="260.00" arrivalLane="TL2E_0" arrivalPos="750.00" arrivalSpeed="12.04" duration="214.00" routeLength="1528.50" waitingTime="69.00" waitingCount="1" stopTime="0.00" timeLoss="91.42" rerouteNo="0" devices="tripinfo_W_E_39" vType="standard_car" speedFactor="0.90" vaporized=""/>
    <tripinfo id="E_W_145" depart="130.00" departLane="E2TL_0" departPos="5.10" departSpeed="0.00" departDelay="121.00" arrival="260.00" arrivalLane="TL2W_0" arrivalPos="750.00" arrivalSpeed="15.73" duration="130.00" routeLength="1528.50" waitingTime="2.00" waitingCount="2" stopTime="0.00" timeLoss="32.81" rerouteNo="0" devices="tripinfo_E_W_145" vType="standard_car" speedFactor="1.14" vaporized=""/>
    <tripinfo id="W_E_80" depart="97.00" departLane="W2TL_0" departPos="5.10" departSpeed="0.00" departDelay="94.00" arrival="261.00" arrivalLane="TL2E_1" arrivalPos="750.00" arrivalSpeed="14.11" duration="164.00" routeLength="1528.50" waitingTime="28.00" waitingCount="1" stopTime="0.00" timeLoss="57.01" rerouteNo="0" devices="tripinfo_W_E_80" vType="standard_car" speedFactor="1.03" vaporized=""/>
    <tripinfo id="E_N_101" depart="88.00" departLane="E2TL_0" departPos="5.10" departSpeed="0.00" departDelay="83.00" arrival="262.00" arrivalLane="TL2N_0" arrivalPos="750.00" arrivalSpeed="12.84" duration="174.00" routeLength="1503.93" waitingTime="34.00" waitingCount="1" stopTime="0.00" timeLoss="59.35" rerouteNo="0" devices="tripinfo_E_N_101" vType="standard_car" speedFactor="0.96" vaporized=""/>
    <tripinfo id="W_E_90" depart="112.00" departLane="W2TL_0" departPos="5.10" departSpeed="0.00" departDelay="108.00" arrival="263.00" arrivalLane="TL2E_1" arrivalPos="750.00" arrivalSpeed="13.86" duration="151.00" routeLength="1528.50" waitingTime="16.00" waitingCount="1" stopTime="0.00" timeLoss="41.85" rerouteNo="0" devices="tripinfo_W_E_90" vType="standard_car" speedFactor="1.02" vaporized=""/>
    <tripinfo id="W_E_49" depart="61.00" departLane="W2TL_0" departPos="5.10" departSpeed="0.00" departDelay="60.00" arrival="264.00" arrivalLane="TL2E_0" arrivalPos="750.00" arrivalSpeed="11.81" duration="203.00" routeLength="1528.50" waitingTime="48.00" waitingCount="2" stopTime="0.00" timeLoss="73.43" rerouteNo="0" devices="tripinfo_W_E_49" vType="standard_car" speedFactor="0.85" vaporized=""/>
    <tripinfo id="E_W_120" depart="122.00" departLane="E2TL_0" departPos="5.10" departSpeed="0.00" departDelay="116.00" arrival="265.00" arrivalLane="TL2W_0" arrivalPos="750.00" arrivalSpeed="12.61" duration="143.00" routeLength="1528.50" waitingTime="4.00" waitingCount="1" stopTime="0.00" timeLoss="26.03" rerouteNo="0" devices="tripinfo_E_W_120" vType="standard_car" speedFactor="0.94" vaporized=""/>
    <tripinfo id="W_E_103" depart="135.00" departLane="W2TL_0" departPos="5.10" departSpeed="0.00" departDelay="130.00" arrival="266.00" arrivalLane="TL2E_1" arrivalPos="750.00" arrivalSpeed="13.17" duration="131.00" routeLength="1528.50" waitingTime="0.00" waitingCount="0" stopTime="0.00" timeLoss="14.54" rerouteNo="0" devices="tripinfo_W_E_103" vType="standard_car" speedFactor="0.95" vaporized=""/>
    <tripinfo id="W_E_85" depart="102.00" departLane="W2TL_0" departPos="5.10" departSpeed="0.00" departDelay="99.00" arrival="266.00" arrivalLane="TL2E_0" arrivalPos="750.00" arrivalSpeed="12.74" duration="164.00" routeLength="1528.50" waitingTime="22.00" waitingCount="1" stopTime="0.00" timeLoss="50.77" rerouteNo="0" devices="tripinfo_W_E_85" vType="standard_car" speedFactor="0.98" vaporized=""/>
    <tripinfo id="W_E_96" depart="125.00" departLane="W2TL_0" departPos="5.10" departSpeed="0.00" departDelay="121.00" arrival="267.00" arrivalLane="TL2E_1" arrivalPos="750.00" arrivalSpeed="13.76" duration="142.00" routeLength="1528.50" waitingTime="3.00" waitingCount="1" stopTime="0.00" timeLoss="32.72" rerouteNo="0" devices="tripinfo_W_E_96" vType="standard_car" speedFactor="1.01" vaporized=""/>
    <tripinfo id="E_W_168" depart="144.00" departLane="E2TL_0" departPos="5.10" departSpeed="0.00" departDelay="133.00" arrival="267.00" arrivalLane="TL2W_0" arrivalPos="750.00" arrivalSpeed="13.56" duration="123.00" routeLength="1528.50" waitingTime="0.00" waitingCount="0" stopTime="0.00" timeLoss="10.75" rerouteNo="0" devices="tripinfo_E_W_168" vType="standard_car" speedFactor="0.98" vaporized=""/>
    <tripinfo id="W_E_114" depart="144.00" departLane="W2TL_0" departPos="5.10" departSpeed="0.00" departDelay="138.00" arrival="269.00" arrivalLane="TL2E_0" arrivalPos="750.00" arrivalSpeed="15.16" duration="125.00" routeLength="1528.50" waitingTime="0.00" waitingCount="0" stopTime="0.00" timeLoss="23.90" rerouteNo="0" devices="tripinfo_W_E_114" vType="standard_car" speedFactor="1.10" vaporized=""/>
    <tripinfo id="E_N_170" depart="153.00" departLane="E2TL_0" departPos="5.10" departSpeed="0.00" departDelay="142.00" arrival="269.00" arrivalLane="TL2N_0" arrivalPos="750.00" arrivalSpeed="14.90" duration="116.00" routeLength="1503.93" waitingTime="0.00" waitingCount="0" stopTime="0.00" timeLoss="14.94" rerouteNo="0" devices="tripinfo_E_N_170" vType="standard_car" speedFactor="1.09" vaporized=""/>
    <tripinfo id="W_E_92" depart="121.00" departLane="W2TL_0" departPos="5.10" departSpeed="0.00" departDelay="117.00" arrival="271.00" arrivalLane="TL2E_0" arrivalPos="750.00" arrivalSpeed="11.17" duration="150.00" routeLength="1528.50" waitingTime="0.00" waitingCount="0" stopTime="0.00" timeLoss="17.23" rerouteNo="0" devices="tripinfo_W_E_92" vType="standard_car" speedFactor="0.83" vaporized=""/>
    <tripinfo id="S_N_19" depart="4.00" departLane="S2TL_0" departPos="5.10" departSpeed="0.00" departDelay="4.00" arrival="297.00" arrivalLane="TL2N_0" arrivalPos="750.00" arrivalSpeed="15.78" duration="293.00" routeLength="1528.50" waitingTime="174.00" waitingCount="2" stopTime="0.00" timeLoss="197.28" rerouteNo="0" devices="tripinfo_S_N_19" vType="standard_car" speedFactor="1.16" vaporized=""/>
    <tripinfo id="N_W_0" depart="0.00" departLane="N2TL_0" departPos="5.10" departSpeed="0.00" departDelay="0.00" arrival="299.00" arrivalLane="TL2W_0" arrivalPos="750.00" arrivalSpeed="14.23" duration="299.00" routeLength="1503.93" waitingTime="175.00" waitingCount="1" stopTime="0.00" timeLoss="195.43" rerouteNo="0" devices="tripinfo_N_W_0" vType="standard_car" speedFactor="1.06" vaporized=""/>
</tripinfos>
