<?xml version="1.0" encoding="UTF-8"?>

<!-- generated on Wed Feb 20 00:31:34 2019 by Eclipse SUMO Version 1.1.0
<configuration xmlns:xsi="http://www.w3.org/2001/XMLSchema-instance" xsi:noNamespaceSchemaLocation="http://sumo.dlr.de/xsd/sumoConfiguration.xsd">

    <input>
        <net-file value="environment/tlcs.net.xml"/>
        <route-files value="environment/tlcs_test.rou.xml"/>
    </input>

    <output>
        <tripinfo-output value="environment/tripinfo.xml"/>
    </output>

    <time>
        <begin value="0"/>
    </time>

    <processing>
        <time-to-teleport value="-1"/>
    </processing>

    <report>
        <no-step-log value="true"/>
    </report>

    <traci_server>
        <remote-port value="51329"/>
    </traci_server>

</configuration>
-->

<tripinfos xmlns:xsi="http://www.w3.org/2001/XMLSchema-instance" xsi:noNamespaceSchemaLocation="http://sumo.dlr.de/xsd/tripinfo_file.xsd">
    <tripinfo id="W_N_1" depart="0.00" departLane="W2TL_0" departPos="5.10" departSpeed="0.00" departDelay="0.00" arrival="129.00" arrivalLane="TL2N_0" arrivalPos="750.00" arrivalSpeed="12.91" duration="129.00" routeLength="1524.57" waitingTime="0.00" waitingCount="0" stopTime="0.00" timeLoss="10.80" rerouteNo="0" devices="tripinfo_W_N_1" vType="standard_car" speedFactor="0.94" vaporized=""/>
    <tripinfo id="S_N_19" depart="4.00" departLane="S2TL_0" departPos="5.10" departSpeed="0.00" departDelay="4.00" arrival="182.00" arrivalLane="TL2N_0" arrivalPos="750.00" arrivalSpeed="15.92" duration="178.00" routeLength="1528.50" waitingTime="59.00" waitingCount="2" stopTime="0.00" timeLoss="82.75" rerouteNo="0" devices="tripinfo_S_N_19" vType="standard_car" speedFactor="1.16" vaporized=""/>
    <tripinfo id="N_W_0" depart="0.00" departLane="N2TL_0" departPos="5.10" departSpeed="0.00" departDelay="0.00" arrival="184.00" arrivalLane="TL2W_0" arrivalPos="750.00" arrivalSpeed="14.49" duration="184.00" routeLength="1503.93" waitingTime="60.00" waitingCount="1" stopTime="0.00" timeLoss="81.22" rerouteNo="0" devices="tripinfo_N_W_0" vType="standard_car" speedFactor="1.06" vaporized=""/>
    <tripinfo id="S_N_40" depart="14.00" departLane="S2TL_0" departPos="5.10" departSpeed="0.00" departDelay="13.00" arrival="187.00" arrivalLane="TL2N_0" arrivalPos="750.00" arrivalSpeed="13.93" duration="173.00" routeLength="1528.50" waitingTime="43.00" waitingCount="2" stopTime="0.00" timeLoss="65.67" rerouteNo="0" devices="tripinfo_S_N_40" vType="standard_car" speedFactor="1.03" vaporized=""/>
    <tripinfo id="N_S_38" depart="58.00" departLane="N2TL_0" departPos="5.10" departSpeed="0.00" departDelay="57.00" arrival="188.00" arrivalLane="TL2S_2" arrivalPos="750.00" arrivalSpeed="15.18" duration="130.00" routeLength="1528.50" waitingTime="5.00" waitingCount="1" stopTime="0.00" timeLoss="29.52" rerouteNo="0" devices="tripinfo_N_S_38" vType="standard_car" speedFactor="1.10" vaporized=""/>
    <tripinfo id="N_S_37" depart="53.00" departLane="N2TL_0" departPos="5.10" departSpeed="0.00" departDelay="52.00" arrival="188.00" arrivalLane="TL2S_1" arrivalPos="750.00" arrivalSpeed="16.24" duration="135.00" routeLength="1528.50" waitingTime="12.00" waitingCount="1" stopTime="0.00" timeLoss="40.76" rerouteNo="0" devices="tripinfo_N_S_37" vType="standard_car" speedFactor="1.18" vaporized=""/>
    <tripinfo id="N_S_32" depart="40.00" departLane="N2TL_0" departPos="5.10" departSpeed="0.00" departDelay="39.00" arrival="190.00" arrivalLane="TL2S_1" arrivalPos="750.00" arrivalSpeed="13.88" duration="150.00" routeLength="1528.50" waitingTime="18.00" waitingCount="1" stopTime="0.00" timeLoss="40.33" rerouteNo="0" devices="tripinfo_N_S_32" vType="standard_car" speedFactor="1.01" vaporized=""/>
    <tripinfo id="S_N_35" depart="10.00" departLane="S2TL_0" departPos="5.10" departSpeed="0.00" departDelay="9.00" arrival="190.00" arrivalLane="TL2N_0" arrivalPos="750.00" arrivalSpeed="14.04" duration="180.00" routeLength="1528.50" waitingTime="50.00" waitingCount="1" stopTime="0.00" timeLoss="71.11" rerouteNo="0" devices="tripinfo_S_N_35" vType="standard_car" speedFactor="1.02" vaporized=""/>
    <tripinfo id="N_S_22" depart="18.00" departLane="N2TL_0" departPos="5.10" departSpeed="0.00" departDelay="18.00" arrival="190.00" arrivalLane="TL2S_0" arrivalPos="750.00" arrivalSpeed="13.20" duration="172.00" routeLength="1528.50" waitingTime="37.00" waitingCount="1" stopTime="0.00" timeLoss="58.64" rerouteNo="0" devices="tripinfo_N_S_22" vType="standard_car" speedFactor="0.98" vaporized=""/>
    <tripinfo id="S_N_46" depart="25.00" departLane="S2TL_0" departPos="5.10" departSpeed="0.00" departDelay="24.00" arrival="193.00" arrivalLane="TL2N_0" arrivalPos="750.00" arrivalSpeed="13.72" duration="168.00" routeLength="1528.50" waitingTime="34.00" waitingCount="1" stopTime="0.00" timeLoss="56.86" rerouteNo="0" devices="tripinfo_S_N_46" vType="standard_car" speedFactor="1.00" vaporized=""/>
    <tripinfo id="S_N_15" depart="0.00" departLane="S2TL_0" departPos="5.10" departSpeed="0.00" departDelay="0.00" arrival="194.00" arrivalLane="TL2N_1" arrivalPos="750.00" arrivalSpeed="12.42" duration="194.00" routeLength="1528.50" waitingTime="53.00" waitingCount="1" stopTime="0.00" timeLoss="75.03" rerouteNo="0" devices="tripinfo_S_N_15" vType="standard_car" speedFactor="0.93" vaporized=""/>
    <tripinfo id="S_N_61" depart="44.00" departLane="S2TL_0" departPos="5.10" departSpeed="0.00" departDelay="42.00" arrival="194.00" arrivalLane="TL2N_0" arrivalPos="750.00" arrivalSpeed="13.96" duration="150.00" routeLength="1528.50" waitingTime="21.00" waitingCount="1" stopTime="0.00" timeLoss="51.50" rerouteNo="0" devices="tripinfo_S_N_61" vType="standard_car" speedFactor="1.12" vaporized=""/>
    <tripinfo id="S_N_44" depart="20.00" departLane="S2TL_0" departPos="5.10" departSpeed="0.00" departDelay="19.00" arrival="196.00" arrivalLane="TL2N_1" arrivalPos="750.00" arrivalSpeed="14.07" duration="176.00" routeLength="1528.50" waitingTime="39.00" waitingCount="1" stopTime="0.00" timeLoss="69.86" rerouteNo="0" devices="tripinfo_S_N_44" vType="standard_car" speedFactor="1.04" vaporized=""/>
    <tripinfo id="N_S_26" depart="31.00" departLane="N2TL_0" departPos="5.10" departSpeed="0.00" departDelay="31.00" arrival="196.00" arrivalLane="TL2S_1" arrivalPos="750.00" arrivalSpeed="12.41" duration="165.00" routeLength="1528.50" waitingTime="21.00" waitingCount="1" stopTime="0.00" timeLoss="44.36" rerouteNo="0" devices="tripinfo_N_S_26" vType="standard_car" speedFactor="0.92" vaporized=""/>
    <tripinfo id="N_S_25" depart="27.00" departLane="N2TL_0" departPos="5.10" departSpeed="0.00" departDelay="27.00" arrival="196.00" arrivalLane="TL2S_0" arrivalPos="750.00" arrivalSpeed="11.80" duration="169.00" routeLength="1528.50" waitingTime="23.00" waitingCount="1" stopTime="0.00" timeLoss="42.83" rerouteNo="0" devices="tripinfo_N_S_25" vType="standard_car" speedFactor="0.87" vaporized=""/>
    <tripinfo id="S_N_47" depart="30.00" departLane="S2TL_0" departPos="5.10" departSpeed="0.00" departDelay="29.00" arrival="197.00" arrivalLane="TL2N_1" arrivalPos="750.00" arrivalSpeed="12.34" duration="167.00" routeLength="1528.50" waitingTime="22.00" waitingCount="1" stopTime="0.00" timeLoss="44.33" rerouteNo="0" devices="tripinfo_S_N_47" vType="standard_car" speedFactor="0.90" vaporized=""/>
    <tripinfo id="N_S_29" depart="36.00" departLane="N2TL_0" departPos="5.10" departSpeed="0.00" departDelay="36.00" arrival="198.00" arrivalLane="TL2S_1" arrivalPos="750.00" arrivalSpeed="12.73" duration="162.00" routeLength="1528.50" waitingTime="21.00" waitingCount="1" stopTime="0.00" timeLoss="43.08" rerouteNo="0" devices="tripinfo_N_S_29" vType="standard_car" speedFactor="0.93" vaporized=""/>
    <tripinfo id="S_N_56" depart="39.00" departLane="S2TL_0" departPos="5.10" departSpeed="0.00" departDelay="38.00" arrival="199.00" arrivalLane="TL2N_0" arrivalPos="750.00" arrivalSpeed="12.04" duration="160.00" routeLength="1528.50" waitingTime="14.00" waitingCount="1" stopTime="0.00" timeLoss="36.73" rerouteNo="0" devices="tripinfo_S_N_56" vType="standard_car" speedFactor="0.90" vaporized=""/>
    <tripinfo id="N_S_24" depart="22.00" departLane="N2TL_0" departPos="5.10" departSpeed="0.00" departDelay="22.00" arrival="202.00" arrivalLane="TL2S_0" arrivalPos="750.00" arrivalSpeed="11.47" duration="180.00" routeLength="1528.50" waitingTime="26.00" waitingCount="1" stopTime="0.00" timeLoss="46.02" rerouteNo="0" devices="tripinfo_N_S_24" vType="standard_car" speedFactor="0.83" vaporized=""/>
    <tripinfo id="E_S_6" depart="13.00" departLane="E2TL_0" departPos="5.10" departSpeed="0.00" departDelay="13.00" arrival="233.00" arrivalLane="TL2S_0" arrivalPos="750.00" arrivalSpeed="14.52" duration="220.00" routeLength="1524.57" waitingTime="91.00" waitingCount="1" stopTime="0.00" timeLoss="114.39" rerouteNo="0" devices="tripinfo_E_S_6" vType="standard_car" speedFactor="1.05" vaporized=""/>
    <tripinfo id="W_N_45" depart="56.00" departLane="W2TL_0" departPos="5.10" departSpeed="0.00" departDelay="55.00" arrival="235.00" arrivalLane="TL2N_1" arrivalPos="750.00" arrivalSpeed="14.69" duration="179.00" routeLength="1524.57" waitingTime="53.00" waitingCount="1" stopTime="0.00" timeLoss="76.89" rerouteNo="0" devices="tripinfo_W_N_45" vType="standard_car" speedFactor="1.09" vaporized=""/>
    <tripinfo id="W_N_36" depart="42.00" departLane="W2TL_0" departPos="5.10" departSpeed="0.00" departDelay="41.00" arrival="238.00" arrivalLane="TL2N_0" arrivalPos="750.00" arrivalSpeed="13.32" duration="196.00" routeLength="1524.57" waitingTime="62.00" waitingCount="1" stopTime="0.00" timeLoss="82.03" rerouteNo="0" devices="tripinfo_W_N_36" vType="standard_car" speedFactor="0.97" vaporized=""/>
    <tripinfo id="W_N_16" depart="14.00" departLane="W2TL_0" departPos="5.10" departSpeed="0.00" departDelay="14.00" arrival="241.00" arrivalLane="TL2N_0" arrivalPos="750.00" arrivalSpeed="11.72" duration="227.00" routeLength="1524.57" waitingTime="83.00" waitingCount="1" stopTime="0.00" timeLoss="101.36" rerouteNo="0" devices="tripinfo_W_N_16" vType="standard_car" speedFactor="0.88" vaporized=""/>
    <tripinfo id="E_S_23" depart="41.00" departLane="E2TL_0" departPos="5.10" departSpeed="0.00" departDelay="41.00" arrival="245.00" arrivalLane="TL2S_0" arrivalPos="750.00" arrivalSpeed="12.05" duration="204.00" routeLength="1524.57" waitingTime="59.00" waitingCount="1" stopTime="0.00" timeLoss="79.72" rerouteNo="0" devices="tripinfo_E_S_23" vType="standard_car" speedFactor="0.89" vaporized=""/>
    <tripinfo id="E_S_5" depart="9.00" departLane="E2TL_0" departPos="5.10" departSpeed="0.00" departDelay="9.00" arrival="248.00" arrivalLane="TL2S_0" arrivalPos="750.00" arrivalSpeed="11.45" duration="239.00" routeLength="1524.57" waitingTime="87.00" waitingCount="1" stopTime="0.00" timeLoss="105.52" rerouteNo="0" devices="tripinfo_E_S_5" vType="standard_car" speedFactor="0.83" vaporized=""/>
    <tripinfo id="S_E_4" depart="4.00" departLane="N2TL_0" departPos="5.10" departSpeed="0.00" departDelay="4.00" arrival="255.00" arrivalLane="TL2E_0" arrivalPos="750.00" arrivalSpeed="14.09" duration="251.00" routeLength="1524.57" waitingTime="122.00" waitingCount="1" stopTime="0.00" timeLoss="143.56" rerouteNo="0" devices="tripinfo_S_E_4" vType="standard_car" speedFactor="1.03" vaporized=""/>
    <tripinfo id="S_W_133" depart="116.00" departLane="S2TL_0" departPos="5.10" departSpeed="0.00" departDelay="108.00" arrival="257.00" arrivalLane="TL2W_1" arrivalPos="750.00" arrivalSpeed="13.97" duration="141.00" routeLength="1524.57" waitingTime="12.00" waitingCount="1" stopTime="0.00" timeLoss="34.40" rerouteNo="0" devices="tripinfo_S_W_133" vType="standard_car" speedFactor="1.04" vaporized=""/>
    <tripinfo id="S_W_83" depart="75.00" departLane="S2TL_0" departPos="5.10" departSpeed="0.00" departDelay="72.00" arrival="258.00" arrivalLane="TL2W_0" arrivalPos="750.00" arrivalSpeed="13.14" duration="183.00" routeLength="1524.57" waitingTime="48.00" waitingCount="1" stopTime="0.00" timeLoss="68.31" rerouteNo="0" devices="tripinfo_S_W_83" vType="standard_car" speedFactor="0.97" vaporized=""/>
    <tripinfo id="S_E_14" depart="13.00" departLane="N2TL_0" departPos="5.10" departSpeed="0.00" departDelay="13.00" arrival="261.00" arrivalLane="TL2E_1" arrivalPos="750.00" arrivalSpeed="13.45" duration="248.00" routeLength="1524.57" waitingTime="115.00" waitingCount="1" stopTime="0.00" timeLoss="136.49" rerouteNo="0" devices="tripinfo_S_E_14" vType="standard_car" speedFactor="0.99" vaporized=""/>
    <tripinfo id="S_E_8" depart="8.00" departLane="N2TL_0" departPos="5.10" departSpeed="0.00" departDelay="8.00" arrival="262.00" arrivalLane="TL2E_0" arrivalPos="750.00" arrivalSpeed="12.54" duration="254.00" routeLength="1524.57" waitingTime="116.00" waitingCount="1" stopTime="0.00" timeLoss="135.94" rerouteNo="0" devices="tripinfo_S_E_8" vType="standard_car" speedFactor="0.94" vaporized=""/>
    <tripinfo id="E_S_54" depart="60.00" departLane="E2TL_0" departPos="5.10" departSpeed="0.00" departDelay="59.00" arrival="303.00" arrivalLane="TL2S_0" arrivalPos="750.00" arrivalSpeed="13.86" duration="243.00" routeLength="1524.57" waitingTime="104.00" waitingCount="2" stopTime="0.00" timeLoss="132.27" rerouteNo="0" devices="tripinfo_E_S_54" vType="standard_car" speedFactor="1.00" vaporized=""/>
    <tripinfo id="E_S_55" depart="65.00" departLane="E2TL_0" departPos="5.10" departSpeed="0.00" departDelay="64.00" arrival="305.00" arrivalLane="TL2S_0" arrivalPos="750.00" arrivalSpeed="13.49" duration="240.00" routeLength="1524.57" waitingTime="98.00" waitingCount="2" stopTime="0.00" timeLoss="128.57" rerouteNo="0" devices="tripinfo_E_S_55" vType="standard_car" speedFactor="1.00" vaporized=""/>
    <tripinfo id="W_N_67" depart="78.00" departLane="W2TL_0" departPos="5.10" departSpeed="0.00" departDelay="76.00" arrival="307.00" arrivalLane="TL2N_0" arrivalPos="750.00" arrivalSpeed="12.48" duration="229.00" routeLength="1524.57" waitingTime="80.00" waitingCount="2" stopTime="0.00" timeLoss="108.55" rerouteNo="0" devices="tripinfo_W_N_67" vType="standard_car" speedFactor="0.91" vaporized=""/>
    <tripinfo id="W_N_126" depart="168.00" departLane="W2TL_0" departPos="5.10" departSpeed="0.00" departDelay="161.00" arrival="308.00" arrivalLane="TL2N_1" arrivalPos="750.00" arrivalSpeed="13.94" duration="140.00" routeLength="1524.57" waitingTime="10.00" waitingCount="2" stopTime="0.00" timeLoss="32.40" rerouteNo="0" devices="tripinfo_W_N_126" vType="standard_car" speedFactor="1.03" vaporized=""/>
    <tripinfo id="E_S_102" depart="90.00" departLane="E2TL_0" departPos="5.10" departSpeed="0.00" departDelay="85.00" arrival="310.00" arrivalLane="TL2S_1" arrivalPos="750.00" arrivalSpeed="13.30" duration="220.00" routeLength="1524.57" waitingTime="75.00" waitingCount="2" stopTime="0.00" timeLoss="106.16" rerouteNo="0" devices="tripinfo_E_S_102" vType="standard_car" speedFactor="0.97" vaporized=""/>
    <tripinfo id="E_S_64" depart="82.00" departLane="E2TL_0" departPos="5.10" departSpeed="0.00" departDelay="80.00" arrival="310.00" arrivalLane="TL2S_0" arrivalPos="750.00" arrivalSpeed="12.96" duration="228.00" routeLength="1524.57" waitingTime="80.00" waitingCount="2" stopTime="0.00" timeLoss="109.88" rerouteNo="0" devices="tripinfo_E_S_64" vType="standard_car" speedFactor="0.94" vaporized=""/>
    <tripinfo id="E_S_152" depart="133.00" departLane="E2TL_0" departPos="5.10" departSpeed="0.00" departDelay="124.00" arrival="310.00" arrivalLane="TL2S_3" arrivalPos="750.00" arrivalSpeed="14.63" duration="177.00" routeLength="1524.57" waitingTime="48.00" waitingCount="1" stopTime="0.00" timeLoss="73.80" rerouteNo="0" devices="tripinfo_E_S_152" vType="standard_car" speedFactor="1.07" vaporized=""/>
    <tripinfo id="W_N_91" depart="117.00" departLane="W2TL_0" departPos="5.10" departSpeed="0.00" departDelay="113.00" arrival="311.00" arrivalLane="TL2N_0" arrivalPos="750.00" arrivalSpeed="12.17" duration="194.00" routeLength="1524.57" waitingTime="50.00" waitingCount="1" stopTime="0.00" timeLoss="69.86" rerouteNo="0" devices="tripinfo_W_N_91" vType="standard_car" speedFactor="0.89" vaporized=""/>
    <tripinfo id="E_S_118" depart="109.00" departLane="E2TL_0" departPos="5.10" departSpeed="0.00" departDelay="103.00" arrival="311.00" arrivalLane="TL2S_2" arrivalPos="750.00" arrivalSpeed="13.61" duration="202.00" routeLength="1524.57" waitingTime="58.00" waitingCount="2" stopTime="0.00" timeLoss="90.67" rerouteNo="0" devices="tripinfo_E_S_118" vType="standard_car" speedFactor="0.99" vaporized=""/>
    <tripinfo id="W_N_97" depart="130.00" departLane="W2TL_0" departPos="5.10" departSpeed="0.00" departDelay="126.00" arrival="312.00" arrivalLane="TL2N_1" arrivalPos="750.00" arrivalSpeed="12.52" duration="182.00" routeLength="1524.57" waitingTime="39.00" waitingCount="1" stopTime="0.00" timeLoss="59.91" rerouteNo="0" devices="tripinfo_W_N_97" vType="standard_car" speedFactor="0.91" vaporized=""/>
    <tripinfo id="E_S_157" depart="138.00" departLane="E2TL_0" departPos="5.10" departSpeed="0.00" departDelay="128.00" arrival="313.00" arrivalLane="TL2S_2" arrivalPos="750.00" arrivalSpeed="14.67" duration="175.00" routeLength="1524.57" waitingTime="46.00" waitingCount="1" stopTime="0.00" timeLoss="72.25" rerouteNo="0" devices="tripinfo_E_S_157" vType="standard_car" speedFactor="1.08" vaporized=""/>
    <tripinfo id="N_S_51" depart="78.00" departLane="N2TL_0" departPos="5.10" departSpeed="0.00" departDelay="77.00" arrival="358.00" arrivalLane="TL2S_1" arrivalPos="750.00" arrivalSpeed="15.78" duration="280.00" routeLength="1528.50" waitingTime="159.00" waitingCount="1" stopTime="0.00" timeLoss="185.14" rerouteNo="0" devices="tripinfo_N_S_51" vType="standard_car" speedFactor="1.17" vaporized=""/>
    <tripinfo id="N_S_42" depart="63.00" departLane="N2TL_0" departPos="5.10" departSpeed="0.00" departDelay="62.00" arrival="359.00" arrivalLane="TL2S_0" arrivalPos="750.00" arrivalSpeed="15.09" duration="296.00" routeLength="1528.50" waitingTime="160.00" waitingCount="1" stopTime="0.00" timeLoss="194.46" rerouteNo="0" devices="tripinfo_N_S_42" vType="standard_car" speedFactor="1.09" vaporized=""/>
    <tripinfo id="N_S_43" depart="67.00" departLane="N2TL_0" departPos="5.10" departSpeed="0.00" departDelay="66.00" arrival="361.00" arrivalLane="TL2S_1" arrivalPos="750.00" arrivalSpeed="14.27" duration="294.00" routeLength="1528.50" waitingTime="159.00" waitingCount="1" stopTime="0.00" timeLoss="187.05" rerouteNo="0" devices="tripinfo_N_S_43" vType="standard_car" speedFactor="1.04" vaporized=""/>
    <tripinfo id="N_S_53" depart="82.00" departLane="N2TL_0" departPos="5.10" departSpeed="0.00" departDelay="81.00" arrival="361.00" arrivalLane="TL2S_0" arrivalPos="750.00" arrivalSpeed="14.84" duration="279.00" routeLength="1528.50" waitingTime="150.00" waitingCount="2" stopTime="0.00" timeLoss="178.03" rerouteNo="0" devices="tripinfo_N_S_53" vType="standard_car" speedFactor="1.10" vaporized=""/>
    <tripinfo id="N_S_79" depart="116.00" departLane="N2TL_0" departPos="5.10" departSpeed="0.00" departDelay="113.00" arrival="363.00" arrivalLane="TL2S_2" arrivalPos="750.00" arrivalSpeed="14.86" duration="247.00" routeLength="1528.50" waitingTime="120.00" waitingCount="1" stopTime="0.00" timeLoss="145.67" rerouteNo="0" devices="tripinfo_N_S_79" vType="standard_car" speedFactor="1.09" vaporized=""/>
    <tripinfo id="S_N_82" depart="71.00" departLane="S2TL_0" departPos="5.10" departSpeed="0.00" departDelay="68.00" arrival="364.00" arrivalLane="TL2N_3" arrivalPos="750.00" arrivalSpeed="14.05" duration="293.00" routeLength="1528.50" waitingTime="161.00" waitingCount="1" stopTime="0.00" timeLoss="184.46" rerouteNo="0" devices="tripinfo_S_N_82" vType="standard_car" speedFactor="1.02" vaporized=""/>
    <tripinfo id="S_N_95" depart="88.00" departLane="S2TL_0" departPos="5.10" departSpeed="0.00" departDelay="84.00" arrival="364.00" arrivalLane="TL2N_2" arrivalPos="750.00" arrivalSpeed="14.41" duration="276.00" routeLength="1528.50" waitingTime="147.00" waitingCount="2" stopTime="0.00" timeLoss="171.66" rerouteNo="0" devices="tripinfo_S_N_95" vType="standard_car" speedFactor="1.06" vaporized=""/>
    <tripinfo id="S_N_75" depart="57.00" departLane="S2TL_0" departPos="5.10" departSpeed="0.00" departDelay="55.00" arrival="364.00" arrivalLane="TL2N_1" arrivalPos="750.00" arrivalSpeed="13.62" duration="307.00" routeLength="1528.50" waitingTime="163.00" waitingCount="2" stopTime="0.00" timeLoss="194.51" rerouteNo="0" devices="tripinfo_S_N_75" vType="standard_car" speedFactor="0.98" vaporized=""/>
    <tripinfo id="N_S_34" depart="49.00" departLane="N2TL_0" departPos="5.10" departSpeed="0.00" departDelay="48.00" arrival="364.00" arrivalLane="TL2S_0" arrivalPos="750.00" arrivalSpeed="13.72" duration="315.00" routeLength="1528.50" waitingTime="173.00" waitingCount="2" stopTime="0.00" timeLoss="203.57" rerouteNo="0" devices="tripinfo_N_S_34" vType="standard_car" speedFactor="0.99" vaporized=""/>
    <tripinfo id="N_S_68" depart="91.00" departLane="N2TL_0" departPos="5.10" departSpeed="0.00" departDelay="89.00" arrival="365.00" arrivalLane="TL2S_1" arrivalPos="750.00" arrivalSpeed="14.21" duration="274.00" routeLength="1528.50" waitingTime="142.00" waitingCount="1" stopTime="0.00" timeLoss="167.24" rerouteNo="0" devices="tripinfo_N_S_68" vType="standard_car" speedFactor="1.04" vaporized=""/>
    <tripinfo id="S_N_74" depart="53.00" departLane="S2TL_0" departPos="5.10" departSpeed="0.00" departDelay="51.00" arrival="365.00" arrivalLane="TL2N_0" arrivalPos="750.00" arrivalSpeed="12.96" duration="312.00" routeLength="1528.50" waitingTime="168.00" waitingCount="2" stopTime="0.00" timeLoss="196.36" rerouteNo="0" devices="tripinfo_S_N_74" vType="standard_car" speedFactor="0.96" vaporized=""/>
    <tripinfo id="S_N_77" depart="62.00" departLane="S2TL_0" departPos="5.10" departSpeed="0.00" departDelay="59.00" arrival="366.00" arrivalLane="TL2N_1" arrivalPos="750.00" arrivalSpeed="13.23" duration="304.00" routeLength="1528.50" waitingTime="161.00" waitingCount="1" stopTime="0.00" timeLoss="191.19" rerouteNo="0" devices="tripinfo_S_N_77" vType="standard_car" speedFactor="0.98" vaporized=""/>
    <tripinfo id="S_N_89" depart="79.00" departLane="S2TL_0" departPos="5.10" departSpeed="0.00" departDelay="75.00" arrival="367.00" arrivalLane="TL2N_1" arrivalPos="750.00" arrivalSpeed="13.84" duration="288.00" routeLength="1528.50" waitingTime="155.00" waitingCount="1" stopTime="0.00" timeLoss="180.14" rerouteNo="0" devices="tripinfo_S_N_89" vType="standard_car" speedFactor="1.02" vaporized=""/>
    <tripinfo id="N_S_62" depart="86.00" departLane="N2TL_0" departPos="5.10" departSpeed="0.00" departDelay="84.00" arrival="367.00" arrivalLane="TL2S_0" arrivalPos="750.00" arrivalSpeed="14.10" duration="281.00" routeLength="1528.50" waitingTime="146.00" waitingCount="1" stopTime="0.00" timeLoss="172.38" rerouteNo="0" devices="tripinfo_N_S_62" vType="standard_car" speedFactor="1.02" vaporized=""/>
    <tripinfo id="S_N_81" depart="67.00" departLane="S2TL_0" departPos="5.10" departSpeed="0.00" departDelay="64.00" arrival="369.00" arrivalLane="TL2N_2" arrivalPos="750.00" arrivalSpeed="13.65" duration="302.00" routeLength="1528.50" waitingTime="160.00" waitingCount="1" stopTime="0.00" timeLoss="191.10" rerouteNo="0" devices="tripinfo_S_N_81" vType="standard_car" speedFactor="1.00" vaporized=""/>
    <tripinfo id="S_N_48" depart="35.00" departLane="S2TL_0" departPos="5.10" departSpeed="0.00" departDelay="34.00" arrival="370.00" arrivalLane="TL2N_0" arrivalPos="750.00" arrivalSpeed="11.94" duration="335.00" routeLength="1528.50" waitingTime="182.00" waitingCount="2" stopTime="0.00" timeLoss="208.69" rerouteNo="0" devices="tripinfo_S_N_48" vType="standard_car" speedFactor="0.88" vaporized=""/>
    <tripinfo id="S_N_65" depart="48.00" departLane="S2TL_0" departPos="5.10" departSpeed="0.00" departDelay="46.00" arrival="372.00" arrivalLane="TL2N_0" arrivalPos="750.00" arrivalSpeed="11.92" duration="324.00" routeLength="1528.50" waitingTime="169.00" waitingCount="2" stopTime="0.00" timeLoss="198.86" rerouteNo="0" devices="tripinfo_S_N_65" vType="standard_car" speedFactor="0.88" vaporized=""/>
    <tripinfo id="W_N_183" depart="237.00" departLane="W2TL_0" departPos="5.10" departSpeed="0.00" departDelay="225.00" arrival="373.00" arrivalLane="TL2N_1" arrivalPos="750.00" arrivalSpeed="14.89" duration="136.00" routeLength="1524.57" waitingTime="11.00" waitingCount="1" stopTime="0.00" timeLoss="33.51" rerouteNo="0" devices="tripinfo_W_N_183" vType="standard_car" speedFactor="1.08" vaporized=""/>
    <tripinfo id="N_S_50" depart="73.00" departLane="N2TL_0" departPos="5.10" departSpeed="0.00" departDelay="72.00" arrival="373.00" arrivalLane="TL2S_0" arrivalPos="750.00" arrivalSpeed="11.60" duration="300.00" routeLength="1528.50" waitingTime="151.00" waitingCount="1" stopTime="0.00" timeLoss="171.26" rerouteNo="0" devices="tripinfo_N_S_50" vType="standard_car" speedFactor="0.85" vaporized=""/>
    <tripinfo id="W_N_228" depart="256.00" departLane="W2TL_0" departPos="5.10" departSpeed="0.00" departDelay="237.00" arrival="375.00" arrivalLane="TL2N_2" arrivalPos="750.00" arrivalSpeed="14.69" duration="119.00" routeLength="1524.57" waitingTime="0.00" waitingCount="0" stopTime="0.00" timeLoss="16.95" rerouteNo="0" devices="tripinfo_W_N_228" vType="standard_car" speedFactor="1.09" vaporized=""/>
    <tripinfo id="E_S_169" depart="147.00" departLane="E2TL_0" departPos="5.10" departSpeed="0.00" departDelay="136.00" arrival="380.00" arrivalLane="TL2S_0" arrivalPos="750.00" arrivalSpeed="12.56" duration="233.00" routeLength="1524.57" waitingTime="84.00" waitingCount="2" stopTime="0.00" timeLoss="115.37" rerouteNo="0" devices="tripinfo_E_S_169" vType="standard_car" speedFactor="0.94" vaporized=""/>
    <tripinfo id="W_E_13" depart="10.00" departLane="W2TL_0" departPos="5.10" departSpeed="0.00" departDelay="10.00" arrival="395.00" arrivalLane="TL2E_1" arrivalPos="750.00" arrivalSpeed="15.54" duration="385.00" routeLength="1528.50" waitingTime="261.00" waitingCount="1" stopTime="0.00" timeLoss="286.81" rerouteNo="0" devices="tripinfo_W_E_13" vType="standard_car" speedFactor="1.12" vaporized=""/>
    <tripinfo id="E_W_10" depart="28.00" departLane="E2TL_0" departPos="5.10" departSpeed="0.00" departDelay="28.00" arrival="395.00" arrivalLane="TL2W_1" arrivalPos="750.00" arrivalSpeed="14.72" duration="367.00" routeLength="1528.50" waitingTime="243.00" waitingCount="1" stopTime="0.00" timeLoss="265.99" rerouteNo="0" devices="tripinfo_E_W_10" vType="standard_car" speedFactor="1.09" vaporized=""/>
    <tripinfo id="E_W_28" depart="46.00" departLane="E2TL_0" departPos="5.10" departSpeed="0.00" departDelay="46.00" arrival="396.00" arrivalLane="TL2W_3" arrivalPos="750.00" arrivalSpeed="15.53" duration="350.00" routeLength="1528.50" waitingTime="225.00" waitingCount="1" stopTime="0.00" timeLoss="252.47" rerouteNo="0" devices="tripinfo_E_W_28" vType="standard_car" speedFactor="1.13" vaporized=""/>
    <tripinfo id="E_W_3" depart="4.00" departLane="E2TL_0" departPos="5.10" departSpeed="0.00" departDelay="4.00" arrival="396.00" arrivalLane="TL2W_0" arrivalPos="750.00" arrivalSpeed="14.69" duration="392.00" routeLength="1528.50" waitingTime="266.00" waitingCount="1" stopTime="0.00" timeLoss="289.62" rerouteNo="0" devices="tripinfo_E_W_3" vType="standard_car" speedFactor="1.08" vaporized=""/>
    <tripinfo id="W_E_12" depart="5.00" departLane="W2TL_0" departPos="5.10" departSpeed="0.00" departDelay="5.00" arrival="396.00" arrivalLane="TL2E_0" arrivalPos="750.00" arrivalSpeed="14.21" duration="391.00" routeLength="1528.50" waitingTime="263.00" waitingCount="1" stopTime="0.00" timeLoss="285.14" rerouteNo="0" devices="tripinfo_W_E_12" vType="standard_car" speedFactor="1.05" vaporized=""/>
    <tripinfo id="W_E_20" depart="23.00" departLane="W2TL_0" departPos="5.10" departSpeed="0.00" departDelay="23.00" arrival="397.00" arrivalLane="TL2E_0" arrivalPos="750.00" arrivalSpeed="13.67" duration="374.00" routeLength="1528.50" waitingTime="245.00" waitingCount="1" stopTime="0.00" timeLoss="265.86" rerouteNo="0" devices="tripinfo_W_E_20" vType="standard_car" speedFactor="1.02" vaporized=""/>
    <tripinfo id="W_E_30" depart="37.00" departLane="W2TL_0" departPos="5.10" departSpeed="0.00" departDelay="36.00" arrival="398.00" arrivalLane="TL2E_1" arrivalPos="750.00" arrivalSpeed="16.36" duration="361.00" routeLength="1528.50" waitingTime="237.00" waitingCount="1" stopTime="0.00" timeLoss="266.70" rerouteNo="0" devices="tripinfo_W_E_30" vType="standard_car" speedFactor="1.18" vaporized=""/>
    <tripinfo id="E_W_2" depart="0.00" departLane="E2TL_0" departPos="5.10" departSpeed="0.00" departDelay="0.00" arrival="398.00" arrivalLane="TL2W_0" arrivalPos="750.00" arrivalSpeed="13.84" duration="398.00" routeLength="1528.50" waitingTime="268.00" waitingCount="1" stopTime="0.00" timeLoss="288.63" rerouteNo="0" devices="tripinfo_E_W_2" vType="standard_car" speedFactor="1.01" vaporized=""/>
    <tripinfo id="E_W_31" depart="51.00" departLane="E2TL_0" departPos="5.10" departSpeed="0.00" departDelay="50.00" arrival="400.00" arrivalLane="TL2W_1" arrivalPos="750.00" arrivalSpeed="16.02" duration="349.00" routeLength="1528.50" waitingTime="225.00" waitingCount="1" stopTime="0.00" timeLoss="253.36" rerouteNo="0" devices="tripinfo_E_W_31" vType="standard_car" speedFactor="1.15" vaporized=""/>
    <tripinfo id="W_S_21" depart="28.00" departLane="W2TL_0" departPos="5.10" departSpeed="0.00" departDelay="28.00" arrival="400.00" arrivalLane="TL2S_0" arrivalPos="750.00" arrivalSpeed="13.70" duration="372.00" routeLength="1503.93" waitingTime="243.00" waitingCount="1" stopTime="0.00" timeLoss="263.96" rerouteNo="0" devices="tripinfo_W_S_21" vType="standard_car" speedFactor="1.01" vaporized=""/>