<?xml version="1.0" encoding="UTF-8"?>

<!-- generated on Fri Feb 22 12:57:06 2019 by Eclipse SUMO Version 1.1.0
<configuration xmlns:xsi="http://www.w3.org/2001/XMLSchema-instance" xsi:noNamespaceSchemaLocation="http://sumo.dlr.de/xsd/sumoConfiguration.xsd">

    <input>
        <net-file value="environment/tlcs.net.xml"/>
        <route-files value="environment/tlcs_test.rou.xml"/>
    </input>

    <output>
        <tripinfo-output value="environment/tripinfo.xml"/>
    </output>

    <time>
        <begin value="0"/>
    </time>

    <processing>
        <time-to-teleport value="-1"/>
    </processing>

    <report>
        <no-step-log value="true"/>
    </report>

    <traci_server>
        <remote-port value="36479"/>
    </traci_server>

</configuration>
-->

<tripinfos xmlns:xsi="http://www.w3.org/2001/XMLSchema-instance" xsi:noNamespaceSchemaLocation="http://sumo.dlr.de/xsd/tripinfo_file.xsd">
    <tripinfo id="S_N_19" depart="4.00" departLane="S2TL_0" departPos="5.10" departSpeed="0.00" departDelay="4.00" arrival="121.00" arrivalLane="TL2N_0" arrivalPos="750.00" arrivalSpeed="15.77" duration="117.00" routeLength="1528.50" waitingTime="1.00" waitingCount="1" stopTime="0.00" timeLoss="21.20" rerouteNo="0" devices="tripinfo_S_N_19" vType="standard_car" speedFactor="1.16" vaporized=""/>
    <tripinfo id="N_W_0" depart="0.00" departLane="N2TL_0" departPos="5.10" departSpeed="0.00" departDelay="0.00" arrival="127.00" arrivalLane="TL2W_0" arrivalPos="750.00" arrivalSpeed="14.49" duration="127.00" routeLength="1503.93" waitingTime="2.00" waitingCount="1" stopTime="0.00" timeLoss="23.45" rerouteNo="0" devices="tripinfo_N_W_0" vType="standard_car" speedFactor="1.06" vaporized=""/>
    <tripinfo id="S_N_35" depart="10.00" departLane="S2TL_0" departPos="5.10" departSpeed="0.00" departDelay="9.00" arrival="129.00" arrivalLane="TL2N_1" arrivalPos="750.00" arrivalSpeed="13.89" duration="119.00" routeLength="1528.50" waitingTime="0.00" waitingCount="0" stopTime="0.00" timeLoss="10.96" rerouteNo="0" devices="tripinfo_S_N_35" vType="standard_car" speedFactor="1.02" vaporized=""/>
    <tripinfo id="S_N_15" depart="0.00" departLane="S2TL_0" departPos="5.10" departSpeed="0.00" departDelay="0.00" arrival="130.00" arrivalLane="TL2N_0" arrivalPos="750.00" arrivalSpeed="12.48" duration="130.00" routeLength="1528.50" waitingTime="0.00" waitingCount="0" stopTime="0.00" timeLoss="10.56" rerouteNo="0" devices="tripinfo_S_N_15" vType="standard_car" speedFactor="0.93" vaporized=""/>
    <tripinfo id="W_E_13" depart="10.00" departLane="W2TL_0" departPos="5.10" departSpeed="0.00" departDelay="10.00" arrival="159.00" arrivalLane="TL2E_0" arrivalPos="750.00" arrivalSpeed="15.27" duration="149.00" routeLength="1528.50" waitingTime="28.00" waitingCount="1" stopTime="0.00" timeLoss="50.77" rerouteNo="0" devices="tripinfo_W_E_13" vType="standard_car" speedFactor="1.12" vaporized=""/>
    <tripinfo id="E_W_28" depart="46.00" departLane="E2TL_0" departPos="5.10" departSpeed="0.00" departDelay="46.00" arrival="160.00" arrivalLane="TL2W_2" arrivalPos="750.00" arrivalSpeed="15.49" duration="114.00" routeLength="1528.50" waitingTime="0.00" waitingCount="0" stopTime="0.00" timeLoss="16.50" rerouteNo="0" devices="tripinfo_E_W_28" vType="standard_car" speedFactor="1.13" vaporized=""/>
    <tripinfo id="W_E_30" depart="37.00" departLane="W2TL_0" departPos="5.10" departSpeed="0.00" departDelay="36.00" arrival="160.00" arrivalLane="TL2E_1" arrivalPos="750.00" arrivalSpeed="16.26" duration="123.00" routeLength="1528.50" waitingTime="4.00" waitingCount="1" stopTime="0.00" timeLoss="29.27" rerouteNo="0" devices="tripinfo_W_E_30" vType="standard_car" speedFactor="1.18" vaporized=""/>
    <tripinfo id="E_W_10" depart="28.00" departLane="E2TL_0" departPos="5.10" departSpeed="0.00" departDelay="28.00" arrival="160.00" arrivalLane="TL2W_1" arrivalPos="750.00" arrivalSpeed="14.72" duration="132.00" routeLength="1528.50" waitingTime="8.00" waitingCount="1" stopTime="0.00" timeLoss="30.59" rerouteNo="0" devices="tripinfo_E_W_10" vType="standard_car" speedFactor="1.09" vaporized=""/>
    <tripinfo id="E_W_3" depart="4.00" departLane="E2TL_0" departPos="5.10" departSpeed="0.00" departDelay="4.00" arrival="160.00" arrivalLane="TL2W_0" arrivalPos="750.00" arrivalSpeed="14.57" duration="156.00" routeLength="1528.50" waitingTime="32.00" waitingCount="1" stopTime="0.00" timeLoss="54.10" rerouteNo="0" devices="tripinfo_E_W_3" vType="standard_car" speedFactor="1.08" vaporized=""/>
    <tripinfo id="E_W_31" depart="51.00" departLane="E2TL_0" departPos="5.10" departSpeed="0.00" departDelay="50.00" arrival="162.00" arrivalLane="TL2W_2" arrivalPos="750.00" arrivalSpeed="15.55" duration="111.00" routeLength="1528.50" waitingTime="0.00" waitingCount="0" stopTime="0.00" timeLoss="14.95" rerouteNo="0" devices="tripinfo_E_W_31" vType="standard_car" speedFactor="1.15" vaporized=""/>
    <tripinfo id="W_E_12" depart="5.00" departLane="W2TL_0" departPos="5.10" departSpeed="0.00" departDelay="5.00" arrival="163.00" arrivalLane="TL2E_0" arrivalPos="750.00" arrivalSpeed="14.54" duration="158.00" routeLength="1528.50" waitingTime="30.00" waitingCount="1" stopTime="0.00" timeLoss="52.03" rerouteNo="0" devices="tripinfo_W_E_12" vType="standard_car" speedFactor="1.05" vaporized=""/>
    <tripinfo id="W_E_20" depart="23.00" departLane="W2TL_0" departPos="5.10" departSpeed="0.00" departDelay="23.00" arrival="164.00" arrivalLane="TL2E_1" arrivalPos="750.00" arrivalSpeed="13.72" duration="141.00" routeLength="1528.50" waitingTime="10.00" waitingCount="1" stopTime="0.00" timeLoss="32.45" rerouteNo="0" devices="tripinfo_W_E_20" vType="standard_car" speedFactor="1.02" vaporized=""/>
    <tripinfo id="E_W_2" depart="0.00" departLane="E2TL_0" departPos="5.10" departSpeed="0.00" departDelay="0.00" arrival="164.00" arrivalLane="TL2W_0" arrivalPos="750.00" arrivalSpeed="13.60" duration="164.00" routeLength="1528.50" waitingTime="34.00" waitingCount="1" stopTime="0.00" timeLoss="55.09" rerouteNo="0" devices="tripinfo_E_W_2" vType="standard_car" speedFactor="1.01" vaporized=""/>
    <tripinfo id="W_S_21" depart="28.00" departLane="W2TL_0" departPos="5.10" departSpeed="0.00" departDelay="28.00" arrival="167.00" arrivalLane="TL2S_0" arrivalPos="750.00" arrivalSpeed="13.87" duration="139.00" routeLength="1503.93" waitingTime="9.00" waitingCount="1" stopTime="0.00" timeLoss="30.53" rerouteNo="0" devices="tripinfo_W_S_21" vType="standard_car" speedFactor="1.01" vaporized=""/>
    <tripinfo id="E_N_11" depart="32.00" departLane="E2TL_0" departPos="5.10" departSpeed="0.00" departDelay="32.00" arrival="168.00" arrivalLane="TL2N_0" arrivalPos="750.00" arrivalSpeed="14.08" duration="136.00" routeLength="1503.93" waitingTime="5.00" waitingCount="1" stopTime="0.00" timeLoss="29.23" rerouteNo="0" devices="tripinfo_E_N_11" vType="standard_car" speedFactor="1.03" vaporized=""/>
    <tripinfo id="W_E_27" depart="32.00" departLane="W2TL_0" departPos="5.10" departSpeed="0.00" departDelay="32.00" arrival="169.00" arrivalLane="TL2E_1" arrivalPos="750.00" arrivalSpeed="12.91" duration="137.00" routeLength="1528.50" waitingTime="0.00" waitingCount="0" stopTime="0.00" timeLoss="20.98" rerouteNo="0" devices="tripinfo_W_E_27" vType="standard_car" speedFactor="0.95" vaporized=""/>
    <tripinfo id="E_W_18" depart="37.00" departLane="E2TL_0" departPos="5.10" departSpeed="0.00" departDelay="37.00" arrival="169.00" arrivalLane="TL2W_0" arrivalPos="750.00" arrivalSpeed="12.82" duration="132.00" routeLength="1528.50" waitingTime="0.00" waitingCount="0" stopTime="0.00" timeLoss="14.17" rerouteNo="0" devices="tripinfo_E_W_18" vType="standard_car" speedFactor="0.94" vaporized=""/>
    <tripinfo id="W_E_17" depart="18.00" departLane="W2TL_0" departPos="5.10" departSpeed="0.00" departDelay="18.00" arrival="170.00" arrivalLane="TL2E_0" arrivalPos="750.00" arrivalSpeed="12.75" duration="152.00" routeLength="1528.50" waitingTime="14.00" waitingCount="2" stopTime="0.00" timeLoss="34.74" rerouteNo="0" devices="tripinfo_W_E_17" vType="standard_car" speedFactor="0.94" vaporized=""/>
    <tripinfo id="E_W_7" depart="18.00" departLane="E2TL_0" departPos="5.10" departSpeed="0.00" departDelay="18.00" arrival="173.00" arrivalLane="TL2W_0" arrivalPos="750.00" arrivalSpeed="12.06" duration="155.00" routeLength="1528.50" waitingTime="9.00" waitingCount="1" stopTime="0.00" timeLoss="30.55" rerouteNo="0" devices="tripinfo_E_W_7" vType="standard_car" speedFactor="0.89" vaporized=""/>
    <tripinfo id="E_N_9" depart="23.00" departLane="E2TL_0" departPos="5.10" departSpeed="0.00" departDelay="23.00" arrival="175.00" arrivalLane="TL2N_0" arrivalPos="750.00" arrivalSpeed="11.53" duration="152.00" routeLength="1503.93" waitingTime="5.00" waitingCount="1" stopTime="0.00" timeLoss="24.68" rerouteNo="0" devices="tripinfo_E_N_9" vType="standard_car" speedFactor="0.86" vaporized=""/>
    <tripinfo id="E_W_52" depart="55.00" departLane="E2TL_0" departPos="5.10" departSpeed="0.00" departDelay="54.00" arrival="175.00" arrivalLane="TL2W_0" arrivalPos="750.00" arrivalSpeed="14.10" duration="120.00" routeLength="1528.50" waitingTime="0.00" waitingCount="0" stopTime="0.00" timeLoss="11.15" rerouteNo="0" devices="tripinfo_E_W_52" vType="standard_car" speedFactor="1.02" vaporized=""/>
    <tripinfo id="W_E_41" depart="51.00" departLane="W2TL_0" departPos="5.10" departSpeed="0.00" departDelay="50.00" arrival="178.00" arrivalLane="TL2E_0" arrivalPos="750.00" arrivalSpeed="12.85" duration="127.00" routeLength="1528.50" waitingTime="0.00" waitingCount="0" stopTime="0.00" timeLoss="11.08" rerouteNo="0" devices="tripinfo_W_E_41" vType="standard_car" speedFactor="0.96" vaporized=""/>
    <tripinfo id="W_E_39" depart="46.00" departLane="W2TL_0" departPos="5.10" departSpeed="0.00" departDelay="45.00" arrival="179.00" arrivalLane="TL2E_0" arrivalPos="750.00" arrivalSpeed="12.39" duration="133.00" routeLength="1528.50" waitingTime="0.00" waitingCount="0" stopTime="0.00" timeLoss="10.76" rerouteNo="0" devices="tripinfo_W_E_39" vType="standard_car" speedFactor="0.90" vaporized=""/>
    <tripinfo id="S_E_4" depart="4.00" departLane="N2TL_0" departPos="5.10" departSpeed="0.00" departDelay="4.00" arrival="215.00" arrivalLane="TL2E_0" arrivalPos="750.00" arrivalSpeed="14.11" duration="211.00" routeLength="1524.57" waitingTime="82.00" waitingCount="1" stopTime="0.00" timeLoss="103.20" rerouteNo="0" devices="tripinfo_S_E_4" vType="standard_car" speedFactor="1.03" vaporized=""/>
    <tripinfo id="S_W_83" depart="77.00" departLane="S2TL_0" departPos="5.10" departSpeed="0.00" departDelay="74.00" arrival="218.00" arrivalLane="TL2W_0" arrivalPos="750.00" arrivalSpeed="13.32" duration="141.00" routeLength="1524.57" waitingTime="7.00" waitingCount="1" stopTime="0.00" timeLoss="26.43" rerouteNo="0" devices="tripinfo_S_W_83" vType="standard_car" speedFactor="0.97" vaporized=""/>
    <tripinfo id="S_E_14" depart="13.00" departLane="N2TL_0" departPos="5.10" departSpeed="0.00" departDelay="13.00" arrival="221.00" arrivalLane="TL2E_1" arrivalPos="750.00" arrivalSpeed="13.69" duration="208.00" routeLength="1524.57" waitingTime="74.00" waitingCount="1" stopTime="0.00" timeLoss="96.63" rerouteNo="0" devices="tripinfo_S_E_14" vType="standard_car" speedFactor="0.99" vaporized=""/>
    <tripinfo id="S_E_8" depart="8.00" departLane="N2TL_0" departPos="5.10" departSpeed="0.00" departDelay="8.00" arrival="222.00" arrivalLane="TL2E_0" arrivalPos="750.00" arrivalSpeed="12.81" duration="214.00" routeLength="1524.57" waitingTime="75.00" waitingCount="1" stopTime="0.00" timeLoss="95.82" rerouteNo="0" devices="tripinfo_S_E_8" vType="standard_car" speedFactor="0.94" vaporized=""/>
    <tripinfo id="E_S_6" depart="13.00" departLane="E2TL_0" departPos="5.10" departSpeed="0.00" departDelay="13.00" arrival="268.00" arrivalLane="TL2S_0" arrivalPos="750.00" arrivalSpeed="14.43" duration="255.00" routeLength="1524.57" waitingTime="127.00" waitingCount="1" stopTime="0.00" timeLoss="149.30" rerouteNo="0" devices="tripinfo_E_S_6" vType="standard_car" speedFactor="1.05" vaporized=""/>
    <tripinfo id="W_N_1" depart="0.00" departLane="W2TL_0" departPos="5.10" departSpeed="0.00" departDelay="0.00" arrival="274.00" arrivalLane="TL2N_0" arrivalPos="750.00" arrivalSpeed="12.86" duration="274.00" routeLength="1524.57" waitingTime="136.00" waitingCount="1" stopTime="0.00" timeLoss="156.09" rerouteNo="0" devices="tripinfo_W_N_1" vType="standard_car" speedFactor="0.94" vaporized=""/>
    <tripinfo id="W_N_36" depart="42.00" departLane="W2TL_0" departPos="5.10" departSpeed="0.00" departDelay="41.00" arrival="276.00" arrivalLane="TL2N_0" arrivalPos="750.00" arrivalSpeed="13.10" duration="234.00" routeLength="1524.57" waitingTime="100.00" waitingCount="1" stopTime="0.00" timeLoss="120.51" rerouteNo="0" devices="tripinfo_W_N_36" vType="standard_car" speedFactor="0.97" vaporized=""/>
    <tripinfo id="E_W_57" depart="70.00" departLane="E2TL_0" departPos="5.10" departSpeed="0.00" departDelay="69.00" arrival="279.00" arrivalLane="TL2W_0" arrivalPos="750.00" arrivalSpeed="15.59" duration="209.00" routeLength="1528.50" waitingTime="88.00" waitingCount="1" stopTime="0.00" timeLoss="112.63" rerouteNo="0" devices="tripinfo_E_W_57" vType="standard_car" speedFactor="1.14" vaporized=""/>
    <tripinfo id="W_N_16" depart="14.00" departLane="W2TL_0" departPos="5.10" departSpeed="0.00" departDelay="14.00" arrival="280.00" arrivalLane="TL2N_0" arrivalPos="750.00" arrivalSpeed="11.74" duration="266.00" routeLength="1524.57" waitingTime="120.00" waitingCount="1" stopTime="0.00" timeLoss="140.04" rerouteNo="0" devices="tripinfo_W_N_16" vType="standard_car" speedFactor="0.88" vaporized=""/>
    <tripinfo id="E_S_23" depart="41.00" departLane="E2TL_0" departPos="5.10" departSpeed="0.00" departDelay="41.00" arrival="280.00" arrivalLane="TL2S_0" arrivalPos="750.00" arrivalSpeed="12.05" duration="239.00" routeLength="1524.57" waitingTime="95.00" waitingCount="1" stopTime="0.00" timeLoss="114.78" rerouteNo="0" devices="tripinfo_E_S_23" vType="standard_car" speedFactor="0.89" vaporized=""/>
    <tripinfo id="E_N_60" depart="78.00" departLane="E2TL_0" departPos="5.10" departSpeed="0.00" departDelay="76.00" arrival="281.00" arrivalLane="TL2N_1" arrivalPos="750.00" arrivalSpeed="15.00" duration="203.00" routeLength="1503.93" waitingTime="77.00" waitingCount="1" stopTime="0.00" timeLoss="102.38" rerouteNo="0" devices="tripinfo_E_N_60" vType="standard_car" speedFactor="1.08" vaporized=""/>
    <tripinfo id="E_W_105" depart="96.00" departLane="E2TL_0" departPos="5.10" departSpeed="0.00" departDelay="91.00" arrival="281.00" arrivalLane="TL2W_0" arrivalPos="750.00" arrivalSpeed="14.53" duration="185.00" routeLength="1528.50" waitingTime="58.00" waitingCount="1" stopTime="0.00" timeLoss="81.56" rerouteNo="0" devices="tripinfo_E_W_105" vType="standard_car" speedFactor="1.07" vaporized=""/>
    <tripinfo id="E_W_136" depart="126.00" departLane="E2TL_0" departPos="5.10" departSpeed="0.00" departDelay="118.00" arrival="283.00" arrivalLane="TL2W_2" arrivalPos="750.00" arrivalSpeed="15.21" duration="157.00" routeLength="1528.50" waitingTime="32.00" waitingCount="1" stopTime="0.00" timeLoss="58.57" rerouteNo="0" devices="tripinfo_E_W_136" vType="standard_car" speedFactor="1.12" vaporized=""/>
    <tripinfo id="E_S_5" depart="9.00" departLane="E2TL_0" departPos="5.10" departSpeed="0.00" departDelay="9.00" arrival="283.00" arrivalLane="TL2S_0" arrivalPos="750.00" arrivalSpeed="11.44" duration="274.00" routeLength="1524.57" waitingTime="122.00" waitingCount="1" stopTime="0.00" timeLoss="140.54" rerouteNo="0" devices="tripinfo_E_S_5" vType="standard_car" speedFactor="0.83" vaporized=""/>
    <tripinfo id="E_W_108" depart="102.00" departLane="E2TL_0" departPos="5.10" departSpeed="0.00" departDelay="97.00" arrival="284.00" arrivalLane="TL2W_0" arrivalPos="750.00" arrivalSpeed="14.54" duration="182.00" routeLength="1528.50" waitingTime="55.00" waitingCount="1" stopTime="0.00" timeLoss="78.47" rerouteNo="0" devices="tripinfo_E_W_108" vType="standard_car" speedFactor="1.06" vaporized=""/>
    <tripinfo id="W_S_73" depart="90.00" departLane="W2TL_0" departPos="5.10" departSpeed="0.00" departDelay="88.00" arrival="284.00" arrivalLane="TL2S_1" arrivalPos="750.00" arrivalSpeed="14.19" duration="194.00" routeLength="1503.93" waitingTime="68.00" waitingCount="1" stopTime="0.00" timeLoss="90.53" rerouteNo="0" devices="tripinfo_W_S_73" vType="standard_car" speedFactor="1.06" vaporized=""/>
    <tripinfo id="W_S_58" depart="65.00" departLane="W2TL_0" departPos="5.10" departSpeed="0.00" departDelay="63.00" arrival="284.00" arrivalLane="TL2S_0" arrivalPos="750.00" arrivalSpeed="12.72" duration="219.00" routeLength="1503.93" waitingTime="83.00" waitingCount="1" stopTime="0.00" timeLoss="112.46" rerouteNo="0" devices="tripinfo_W_S_58" vType="standard_car" speedFactor="1.02" vaporized=""/>
    <tripinfo id="W_E_63" depart="70.00" departLane="W2TL_0" departPos="5.10" departSpeed="0.00" departDelay="68.00" arrival="285.00" arrivalLane="TL2E_0" arrivalPos="750.00" arrivalSpeed="13.53" duration="215.00" routeLength="1528.50" waitingTime="82.00" waitingCount="1" stopTime="0.00" timeLoss="102.80" rerouteNo="0" devices="tripinfo_W_E_63" vType="standard_car" speedFactor="0.99" vaporized=""/>
    <tripinfo id="W_E_76" depart="94.00" departLane="W2TL_0" departPos="5.10" departSpeed="0.00" departDelay="91.00" arrival="285.00" arrivalLane="TL2E_1" arrivalPos="750.00" arrivalSpeed="14.05" duration="191.00" routeLength="1528.50" waitingTime="60.00" waitingCount="1" stopTime="0.00" timeLoss="83.98" rerouteNo="0" devices="tripinfo_W_E_76" vType="standard_car" speedFactor="1.03" vaporized=""/>
    <tripinfo id="W_E_87" depart="108.00" departLane="W2TL_0" departPos="5.10" departSpeed="0.00" departDelay="105.00" arrival="286.00" arrivalLane="TL2E_2" arrivalPos="750.00" arrivalSpeed="14.23" duration="178.00" routeLength="1528.50" waitingTime="48.00" waitingCount="1" stopTime="0.00" timeLoss="72.45" rerouteNo="0" devices="tripinfo_W_E_87" vType="standard_car" speedFactor="1.04" vaporized=""/>
    <tripinfo id="E_W_119" depart="117.00" departLane="E2TL_0" departPos="5.10" departSpeed="0.00" departDelay="111.00" arrival="286.00" arrivalLane="TL2W_1" arrivalPos="750.00" arrivalSpeed="14.70" duration="169.00" routeLength="1528.50" waitingTime="40.00" waitingCount="1" stopTime="0.00" timeLoss="65.56" rerouteNo="0" devices="tripinfo_E_W_119" vType="standard_car" speedFactor="1.07" vaporized=""/>
    <tripinfo id="E_W_59" depart="74.00" departLane="E2TL_0" departPos="5.10" departSpeed="0.00" departDelay="72.00" arrival="286.00" arrivalLane="TL2W_0" arrivalPos="750.00" arrivalSpeed="13.29" duration="212.00" routeLength="1528.50" waitingTime="76.00" waitingCount="1" stopTime="0.00" timeLoss="98.37" rerouteNo="0" devices="tripinfo_E_W_59" vType="standard_car" speedFactor="0.97" vaporized=""/>
    <tripinfo id="E_W_113" depart="107.00" departLane="E2TL_0" departPos="5.10" departSpeed="0.00" departDelay="101.00" arrival="286.00" arrivalLane="TL2W_2" arrivalPos="750.00" arrivalSpeed="13.60" duration="179.00" routeLength="1528.50" waitingTime="45.00" waitingCount="1" stopTime="0.00" timeLoss="69.52" rerouteNo="0" devices="tripinfo_E_W_113" vType="standard_car" speedFactor="1.01" vaporized=""/>
    <tripinfo id="W_E_70" depart="84.00" departLane="W2TL_0" departPos="5.10" departSpeed="0.00" departDelay="82.00" arrival="287.00" arrivalLane="TL2E_1" arrivalPos="750.00" arrivalSpeed="13.92" duration="203.00" routeLength="1528.50" waitingTime="70.00" waitingCount="2" stopTime="0.00" timeLoss="94.70" rerouteNo="0" devices="tripinfo_W_E_70" vType="standard_car" speedFactor="1.02" vaporized=""/>
    <tripinfo id="W_E_80" depart="99.00" departLane="W2TL_0" departPos="5.10" departSpeed="0.00" departDelay="96.00" arrival="288.00" arrivalLane="TL2E_1" arrivalPos="750.00" arrivalSpeed="14.35" duration="189.00" routeLength="1528.50" waitingTime="57.00" waitingCount="1" stopTime="0.00" timeLoss="82.48" rerouteNo="0" devices="tripinfo_W_E_80" vType="standard_car" speedFactor="1.03" vaporized=""/>
    <tripinfo id="E_N_101" depart="87.00" departLane="E2TL_0" departPos="5.10" departSpeed="0.00" departDelay="82.00" arrival="289.00" arrivalLane="TL2N_0" arrivalPos="750.00" arrivalSpeed="13.27" duration="202.00" routeLength="1503.93" waitingTime="67.00" waitingCount="1" stopTime="0.00" timeLoss="87.75" rerouteNo="0" devices="tripinfo_E_N_101" vType="standard_car" speedFactor="0.96" vaporized=""/>
    <tripinfo id="W_E_66" depart="75.00" departLane="W2TL_0" departPos="5.10" departSpeed="0.00" departDelay="73.00" arrival="290.00" arrivalLane="TL2E_0" arrivalPos="750.00" arrivalSpeed="12.20" duration="215.00" routeLength="1528.50" waitingTime="71.00" waitingCount="1" stopTime="0.00" timeLoss="92.74" rerouteNo="0" devices="tripinfo_W_E_66" vType="standard_car" speedFactor="0.91" vaporized=""/>
    <tripinfo id="W_E_49" depart="61.00" departLane="W2TL_0" departPos="5.10" departSpeed="0.00" departDelay="60.00" arrival="294.00" arrivalLane="TL2E_0" arrivalPos="750.00" arrivalSpeed="11.32" duration="233.00" routeLength="1528.50" waitingTime="83.00" waitingCount="1" stopTime="0.00" timeLoss="103.34" rerouteNo="0" devices="tripinfo_W_E_49" vType="standard_car" speedFactor="0.85" vaporized=""/>
    <tripinfo id="S_E_33" depart="44.00" departLane="N2TL_0" departPos="5.10" departSpeed="0.00" departDelay="43.00" arrival="302.00" arrivalLane="TL2E_0" arrivalPos="750.00" arrivalSpeed="16.22" duration="258.00" routeLength="1524.57" waitingTime="132.00" waitingCount="2" stopTime="0.00" timeLoss="163.41" rerouteNo="0" devices="tripinfo_S_E_33" vType="standard_car" speedFactor="1.17" vaporized=""/>
    <tripinfo id="S_W_133" depart="119.00" departLane="S2TL_0" departPos="5.10" departSpeed="0.00" departDelay="111.00" arrival="309.00" arrivalLane="TL2W_0" arrivalPos="750.00" arrivalSpeed="14.04" duration="190.00" routeLength="1524.57" waitingTime="61.00" waitingCount="1" stopTime="0.00" timeLoss="83.06" rerouteNo="0" devices="tripinfo_S_W_133" vType="standard_car" speedFactor="1.04" vaporized=""/>
    <tripinfo id="S_E_94" depart="136.00" departLane="N2TL_0" departPos="5.10" departSpeed="0.00" departDelay="132.00" arrival="312.00" arrivalLane="TL2E_1" arrivalPos="750.00" arrivalSpeed="14.82" duration="176.00" routeLength="1524.57" waitingTime="50.00" waitingCount="1" stopTime="0.00" timeLoss="74.60" rerouteNo="0" devices="tripinfo_S_E_94" vType="standard_car" speedFactor="1.09" vaporized=""/>
    <tripinfo id="S_E_71" depart="102.00" departLane="N2TL_0" departPos="5.10" departSpeed="0.00" departDelay="100.00" arrival="313.00" arrivalLane="TL2E_0" arrivalPos="750.00" arrivalSpeed="13.30" duration="211.00" routeLength="1524.57" waitingTime="77.00" waitingCount="1" stopTime="0.00" timeLoss="97.62" rerouteNo="0" devices="tripinfo_S_E_71" vType="standard_car" speedFactor="0.97" vaporized=""/>
    <tripinfo id="S_W_166" depart="178.00" departLane="S2TL_0" departPos="5.10" departSpeed="0.00" departDelay="167.00" arrival="313.00" arrivalLane="TL2W_0" arrivalPos="750.00" arrivalSpeed="13.69" duration="135.00" routeLength="1524.57" waitingTime="1.00" waitingCount="1" stopTime="0.00" timeLoss="25.21" rerouteNo="0" devices="tripinfo_S_W_166" vType="standard_car" speedFactor="1.00" vaporized=""/>
    <tripinfo id="S_W_153" depart="156.00" departLane="S2TL_0" departPos="5.10" departSpeed="0.00" departDelay="147.00" arrival="316.00" arrivalLane="TL2W_0" arrivalPos="750.00" arrivalSpeed="12.42" duration="160.00" routeLength="1524.57" waitingTime="21.00" waitingCount="1" stopTime="0.00" timeLoss="40.57" rerouteNo="0" devices="tripinfo_S_W_153" vType="standard_car" speedFactor="0.93" vaporized=""/>
    <tripinfo id="S_E_72" depart="106.00" departLane="N2TL_0" departPos="5.10" departSpeed="0.00" departDelay="104.00" arrival="317.00" arrivalLane="TL2E_0" arrivalPos="750.00" arrivalSpeed="12.76" duration="211.00" routeLength="1524.57" waitingTime="72.00" waitingCount="1" stopTime="0.00" timeLoss="93.28" rerouteNo="0" devices="tripinfo_S_E_72" vType="standard_car" speedFactor="0.94" vaporized=""/>
    <tripinfo id="N_E_131" depart="191.00" departLane="N2TL_0" departPos="5.10" departSpeed="0.00" departDelay="183.00" arrival="320.00" arrivalLane="TL2E_1" arrivalPos="750.00" arrivalSpeed="14.39" duration="129.00" routeLength="1524.57" waitingTime="1.00" waitingCount="1" stopTime="0.00" timeLoss="25.17" rerouteNo="0" devices="tripinfo_N_E_131" vType="standard_car" speedFactor="1.07" vaporized=""/>
    <tripinfo id="S_W_171" depart="189.00" departLane="S2TL_0" departPos="5.10" departSpeed="0.00" departDelay="178.00" arrival="324.00" arrivalLane="TL2W_0" arrivalPos="750.00" arrivalSpeed="12.40" duration="135.00" routeLength="1524.57" waitingTime="0.00" waitingCount="0" stopTime="0.00" timeLoss="11.15" rerouteNo="0" devices="tripinfo_S_W_171" vType="standard_car" speedFactor="0.90" vaporized=""/>
    <tripinfo id="N_E_110" depart="159.00" departLane="N2TL_0" departPos="5.10" departSpeed="0.00" departDelay="153.00" arrival="324.00" arrivalLane="TL2E_1" arrivalPos="750.00" arrivalSpeed="12.56" duration="165.00" routeLength="1524.57" waitingTime="24.00" waitingCount="1" stopTime="0.00" timeLoss="46.14" rerouteNo="0" devices="tripinfo_N_E_110" vType="standard_car" speedFactor="0.93" vaporized=""/>
    <tripinfo id="N_E_104" depart="150.00" departLane="N2TL_0" departPos="5.10" departSpeed="0.00" departDelay="145.00" arrival="325.00" arrivalLane="TL2E_0" arrivalPos="750.00" arrivalSpeed="12.14" duration="175.00" routeLength="1524.57" waitingTime="30.00" waitingCount="1" stopTime="0.00" timeLoss="50.84" rerouteNo="0" devices="tripinfo_N_E_104" vType="standard_car" speedFactor="0.89" vaporized=""/>
    <tripinfo id="S_E_159" depart="218.00" departLane="N2TL_0" departPos="5.10" departSpeed="0.00" departDelay="208.00" arrival="329.00" arrivalLane="TL2E_2" arrivalPos="750.00" arrivalSpeed="15.59" duration="111.00" routeLength="1524.57" waitingTime="0.00" waitingCount="0" stopTime="0.00" timeLoss="13.52" rerouteNo="0" devices="tripinfo_S_E_159" vType="standard_car" speedFactor="1.14" vaporized=""/>
    <tripinfo id="N_E_154" depart="214.00" departLane="N2TL_0" departPos="5.10" departSpeed="0.00" departDelay="205.00" arrival="330.00" arrivalLane="TL2E_0" arrivalPos="750.00" arrivalSpeed="14.56" duration="116.00" routeLength="1524.57" waitingTime="0.00" waitingCount="0" stopTime="0.00" timeLoss="11.99" rerouteNo="0" devices="tripinfo_N_E_154" vType="standard_car" speedFactor="1.06" vaporized=""/>
    <tripinfo id="S_W_187" depart="213.00" departLane="S2TL_0" departPos="5.10" departSpeed="0.00" departDelay="200.00" arrival="347.00" arrivalLane="TL2W_0" arrivalPos="750.00" arrivalSpeed="12.38" duration="134.00" routeLength="1524.57" waitingTime="0.00" waitingCount="0" stopTime="0.00" timeLoss="10.09" rerouteNo="0" devices="tripinfo_S_W_187" vType="standard_car" speedFactor="0.89" vaporized=""/>
    <tripinfo id="W_N_45" depart="56.00" departLane="W2TL_0" departPos="5.10" departSpeed="0.00" departDelay="55.00" arrival="374.00" arrivalLane="TL2N_0" arrivalPos="750.00" arrivalSpeed="15.06" duration="318.00" routeLength="1524.57" waitingTime="185.00" waitingCount="2" stopTime="0.00" timeLoss="216.54" rerouteNo="0" devices="tripinfo_W_N_45" vType="standard_car" speedFactor="1.09" vaporized=""/>
    <tripinfo id="E_S_54" depart="60.00" departLane="E2TL_0" departPos="5.10" departSpeed="0.00" departDelay="59.00" arrival="378.00" arrivalLane="TL2S_0" arrivalPos="750.00" arrivalSpeed="13.75" duration="318.00" routeLength="1524.57" waitingTime="178.00" waitingCount="2" stopTime="0.00" timeLoss="207.62" rerouteNo="0" devices="tripinfo_E_S_54" vType="standard_car" speedFactor="1.00" vaporized=""/>
    <tripinfo id="E_S_55" depart="65.00" departLane="E2TL_0" departPos="5.10" departSpeed="0.00" departDelay="64.00" arrival="380.00" arrivalLane="TL2S_0" arrivalPos="750.00" arrivalSpeed="13.50" duration="315.00" routeLength="1524.57" waitingTime="174.00" waitingCount="2" stopTime="0.00" timeLoss="204.07" rerouteNo="0" devices="tripinfo_E_S_55" vType="standard_car" speedFactor="1.00" vaporized=""/>
    <tripinfo id="W_N_126" depart="169.00" departLane="W2TL_0" departPos="5.10" departSpeed="0.00" departDelay="162.00" arrival="386.00" arrivalLane="TL2N_1" arrivalPos="750.00" arrivalSpeed="14.17" duration="217.00" routeLength="1524.57" waitingTime="85.00" waitingCount="1" stopTime="0.00" timeLoss="109.55" rerouteNo="0" devices="tripinfo_W_N_126" vType="standard_car" speedFactor="1.03" vaporized=""/>
    <tripinfo id="E_S_64" depart="83.00" departLane="E2TL_0" departPos="5.10" departSpeed="0.00" departDelay="81.00" arrival="386.00" arrivalLane="TL2S_0" arrivalPos="750.00" arrivalSpeed="12.69" duration="303.00" routeLength="1524.57" waitingTime="155.00" waitingCount="2" stopTime="0.00" timeLoss="184.53" rerouteNo="0" devices="tripinfo_E_S_64" vType="standard_car" speedFactor="0.94" vaporized=""/>
    <tripinfo id="W_N_67" depart="80.00" departLane="W2TL_0" departPos="5.10" departSpeed="0.00" departDelay="78.00" arrival="386.00" arrivalLane="TL2N_0" arrivalPos="750.00" arrivalSpeed="12.48" duration="306.00" routeLength="1524.57" waitingTime="155.00" waitingCount="2" stopTime="0.00" timeLoss="184.82" rerouteNo="0" devices="tripinfo_W_N_67" vType="standard_car" speedFactor="0.91" vaporized=""/>
    <tripinfo id="E_S_102" depart="92.00" departLane="E2TL_0" departPos="5.10" departSpeed="0.00" departDelay="87.00" arrival="386.00" arrivalLane="TL2S_1" arrivalPos="750.00" arrivalSpeed="12.96" duration="294.00" routeLength="1524.57" waitingTime="150.00" waitingCount="2" stopTime="0.00" timeLoss="179.27" rerouteNo="0" devices="tripinfo_E_S_102" vType="standard_car" speedFactor="0.97" vaporized=""/>