<?xml version="1.0" encoding="UTF-8"?>

<!-- generated on Tue Feb 26 13:46:44 2019 by Eclipse SUMO Version 1.1.0
<configuration xmlns:xsi="http://www.w3.org/2001/XMLSchema-instance" xsi:noNamespaceSchemaLocation="http://sumo.dlr.de/xsd/sumoConfiguration.xsd">

    <input>
        <net-file value="environment/tlcs.net.xml"/>
        <route-files value="environment/tlcs_test.rou.xml"/>
    </input>

    <output>
        <tripinfo-output value="environment/tripinfo.xml"/>
    </output>

    <time>
        <begin value="0"/>
    </time>

    <processing>
        <time-to-teleport value="-1"/>
    </processing>

    <report>
        <no-step-log value="true"/>
    </report>

    <traci_server>
        <remote-port value="51881"/>
    </traci_server>

</configuration>
-->

<tripinfos xmlns:xsi="http://www.w3.org/2001/XMLSchema-instance" xsi:noNamespaceSchemaLocation="http://sumo.dlr.de/xsd/tripinfo_file.xsd">
    <tripinfo id="W_N_1" depart="0.00" departLane="W2TL_0" departPos="5.10" departSpeed="0.00" departDelay="0.00" arrival="129.00" arrivalLane="TL2N_0" arrivalPos="750.00" arrivalSpeed="12.99" duration="129.00" routeLength="1524.57" waitingTime="0.00" waitingCount="0" stopTime="0.00" timeLoss="10.89" rerouteNo="0" devices="tripinfo_W_N_1" vType="standard_car" speedFactor="0.94" vaporized=""/>
    <tripinfo id="E_S_6" depart="13.00" departLane="E2TL_0" departPos="5.10" departSpeed="0.00" departDelay="13.00" arrival="131.00" arrivalLane="TL2S_0" arrivalPos="750.00" arrivalSpeed="14.38" duration="118.00" routeLength="1524.57" waitingTime="0.00" waitingCount="0" stopTime="0.00" timeLoss="12.06" rerouteNo="0" devices="tripinfo_E_S_6" vType="standard_car" speedFactor="1.05" vaporized=""/>
    <tripinfo id="W_N_16" depart="14.00" departLane="W2TL_0" departPos="5.10" departSpeed="0.00" departDelay="14.00" arrival="150.00" arrivalLane="TL2N_0" arrivalPos="750.00" arrivalSpeed="11.91" duration="136.00" routeLength="1524.57" waitingTime="0.00" waitingCount="0" stopTime="0.00" timeLoss="10.04" rerouteNo="0" devices="tripinfo_W_N_16" vType="standard_car" speedFactor="0.88" vaporized=""/>
    <tripinfo id="E_S_5" depart="9.00" departLane="E2TL_0" departPos="5.10" departSpeed="0.00" departDelay="9.00" arrival="152.00" arrivalLane="TL2S_0" arrivalPos="750.00" arrivalSpeed="11.53" duration="143.00" routeLength="1524.57" waitingTime="0.00" waitingCount="0" stopTime="0.00" timeLoss="10.33" rerouteNo="0" devices="tripinfo_E_S_5" vType="standard_car" speedFactor="0.83" vaporized=""/>
    <tripinfo id="W_N_36" depart="42.00" departLane="W2TL_0" departPos="5.10" departSpeed="0.00" departDelay="41.00" arrival="166.00" arrivalLane="TL2N_0" arrivalPos="750.00" arrivalSpeed="13.12" duration="124.00" routeLength="1524.57" waitingTime="0.00" waitingCount="0" stopTime="0.00" timeLoss="10.60" rerouteNo="0" devices="tripinfo_W_N_36" vType="standard_car" speedFactor="0.97" vaporized=""/>
    <tripinfo id="W_N_45" depart="56.00" departLane="W2TL_0" departPos="5.10" departSpeed="0.00" departDelay="55.00" arrival="170.00" arrivalLane="TL2N_0" arrivalPos="750.00" arrivalSpeed="14.79" duration="114.00" routeLength="1524.57" waitingTime="0.00" waitingCount="0" stopTime="0.00" timeLoss="12.01" rerouteNo="0" devices="tripinfo_W_N_45" vType="standard_car" speedFactor="1.09" vaporized=""/>
    <tripinfo id="E_S_23" depart="41.00" departLane="E2TL_0" departPos="5.10" departSpeed="0.00" departDelay="41.00" arrival="176.00" arrivalLane="TL2S_0" arrivalPos="750.00" arrivalSpeed="12.27" duration="135.00" routeLength="1524.57" waitingTime="0.00" waitingCount="0" stopTime="0.00" timeLoss="11.00" rerouteNo="0" devices="tripinfo_E_S_23" vType="standard_car" speedFactor="0.89" vaporized=""/>
    <tripinfo id="E_S_54" depart="60.00" departLane="E2TL_0" departPos="5.10" departSpeed="0.00" departDelay="59.00" arrival="201.00" arrivalLane="TL2S_0" arrivalPos="750.00" arrivalSpeed="13.55" duration="141.00" routeLength="1524.57" waitingTime="8.00" waitingCount="1" stopTime="0.00" timeLoss="30.71" rerouteNo="0" devices="tripinfo_E_S_54" vType="standard_car" speedFactor="1.00" vaporized=""/>
    <tripinfo id="E_S_55" depart="65.00" departLane="E2TL_0" departPos="5.10" departSpeed="0.00" departDelay="64.00" arrival="203.00" arrivalLane="TL2S_0" arrivalPos="750.00" arrivalSpeed="13.45" duration="138.00" routeLength="1524.57" waitingTime="5.00" waitingCount="1" stopTime="0.00" timeLoss="26.98" rerouteNo="0" devices="tripinfo_E_S_55" vType="standard_car" speedFactor="1.00" vaporized=""/>
    <tripinfo id="W_N_67" depart="78.00" departLane="W2TL_0" departPos="5.10" departSpeed="0.00" departDelay="76.00" arrival="210.00" arrivalLane="TL2N_0" arrivalPos="750.00" arrivalSpeed="12.22" duration="132.00" routeLength="1524.57" waitingTime="0.00" waitingCount="0" stopTime="0.00" timeLoss="10.81" rerouteNo="0" devices="tripinfo_W_N_67" vType="standard_car" speedFactor="0.91" vaporized=""/>
    <tripinfo id="E_S_64" depart="82.00" departLane="E2TL_0" departPos="5.10" departSpeed="0.00" departDelay="80.00" arrival="211.00" arrivalLane="TL2S_0" arrivalPos="750.00" arrivalSpeed="12.67" duration="129.00" routeLength="1524.57" waitingTime="0.00" waitingCount="0" stopTime="0.00" timeLoss="10.74" rerouteNo="0" devices="tripinfo_E_S_64" vType="standard_car" speedFactor="0.94" vaporized=""/>
    <tripinfo id="E_S_102" depart="92.00" departLane="E2TL_0" departPos="5.10" departSpeed="0.00" departDelay="87.00" arrival="217.00" arrivalLane="TL2S_0" arrivalPos="750.00" arrivalSpeed="13.29" duration="125.00" routeLength="1524.57" waitingTime="0.00" waitingCount="0" stopTime="0.00" timeLoss="10.54" rerouteNo="0" devices="tripinfo_E_S_102" vType="standard_car" speedFactor="0.97" vaporized=""/>
    <tripinfo id="E_S_118" depart="109.00" departLane="E2TL_0" departPos="5.10" departSpeed="0.00" departDelay="103.00" arrival="232.00" arrivalLane="TL2S_0" arrivalPos="750.00" arrivalSpeed="13.62" duration="123.00" routeLength="1524.57" waitingTime="0.00" waitingCount="0" stopTime="0.00" timeLoss="10.85" rerouteNo="0" devices="tripinfo_E_S_118" vType="standard_car" speedFactor="0.99" vaporized=""/>
    <tripinfo id="W_N_91" depart="115.00" departLane="W2TL_0" departPos="5.10" departSpeed="0.00" departDelay="111.00" arrival="249.00" arrivalLane="TL2N_0" arrivalPos="750.00" arrivalSpeed="12.32" duration="134.00" routeLength="1524.57" waitingTime="0.00" waitingCount="0" stopTime="0.00" timeLoss="10.34" rerouteNo="0" devices="tripinfo_W_N_91" vType="standard_car" speedFactor="0.89" vaporized=""/>
    <tripinfo id="E_S_152" depart="133.00" departLane="E2TL_0" departPos="5.10" departSpeed="0.00" departDelay="124.00" arrival="249.00" arrivalLane="TL2S_0" arrivalPos="750.00" arrivalSpeed="14.47" duration="116.00" routeLength="1524.57" waitingTime="0.00" waitingCount="0" stopTime="0.00" timeLoss="12.26" rerouteNo="0" devices="tripinfo_E_S_152" vType="standard_car" speedFactor="1.07" vaporized=""/>
    <tripinfo id="W_N_97" depart="128.00" departLane="W2TL_0" departPos="5.10" departSpeed="0.00" departDelay="124.00" arrival="261.00" arrivalLane="TL2N_0" arrivalPos="750.00" arrivalSpeed="12.38" duration="133.00" routeLength="1524.57" waitingTime="0.00" waitingCount="0" stopTime="0.00" timeLoss="11.16" rerouteNo="0" devices="tripinfo_W_N_97" vType="standard_car" speedFactor="0.91" vaporized=""/>
    <tripinfo id="S_E_4" depart="4.00" departLane="N2TL_0" departPos="5.10" departSpeed="0.00" departDelay="4.00" arrival="333.00" arrivalLane="TL2E_0" arrivalPos="750.00" arrivalSpeed="13.94" duration="329.00" routeLength="1524.57" waitingTime="200.00" waitingCount="1" stopTime="0.00" timeLoss="221.50" rerouteNo="0" devices="tripinfo_S_E_4" vType="standard_car" speedFactor="1.03" vaporized=""/>
    <tripinfo id="S_W_133" depart="117.00" departLane="S2TL_0" departPos="5.10" departSpeed="0.00" departDelay="109.00" arrival="334.00" arrivalLane="TL2W_0" arrivalPos="750.00" arrivalSpeed="13.94" duration="217.00" routeLength="1524.57" waitingTime="88.00" waitingCount="1" stopTime="0.00" timeLoss="110.11" rerouteNo="0" devices="tripinfo_S_W_133" vType="standard_car" speedFactor="1.04" vaporized=""/>
    <tripinfo id="S_E_33" depart="44.00" departLane="N2TL_0" departPos="5.10" departSpeed="0.00" departDelay="43.00" arrival="334.00" arrivalLane="TL2E_2" arrivalPos="750.00" arrivalSpeed="15.95" duration="290.00" routeLength="1524.57" waitingTime="169.00" waitingCount="1" stopTime="0.00" timeLoss="195.70" rerouteNo="0" devices="tripinfo_S_E_33" vType="standard_car" speedFactor="1.17" vaporized=""/>
    <tripinfo id="S_W_83" depart="75.00" departLane="S2TL_0" departPos="5.10" departSpeed="0.00" departDelay="72.00" arrival="335.00" arrivalLane="TL2W_0" arrivalPos="750.00" arrivalSpeed="13.19" duration="260.00" routeLength="1524.57" waitingTime="126.00" waitingCount="1" stopTime="0.00" timeLoss="145.80" rerouteNo="0" devices="tripinfo_S_W_83" vType="standard_car" speedFactor="0.97" vaporized=""/>
    <tripinfo id="S_E_14" depart="13.00" departLane="N2TL_0" departPos="5.10" departSpeed="0.00" departDelay="13.00" arrival="339.00" arrivalLane="TL2E_1" arrivalPos="750.00" arrivalSpeed="13.60" duration="326.00" routeLength="1524.57" waitingTime="193.00" waitingCount="1" stopTime="0.00" timeLoss="213.95" rerouteNo="0" devices="tripinfo_S_E_14" vType="standard_car" speedFactor="0.99" vaporized=""/>
    <tripinfo id="S_E_8" depart="8.00" departLane="N2TL_0" departPos="5.10" departSpeed="0.00" departDelay="8.00" arrival="340.00" arrivalLane="TL2E_0" arrivalPos="750.00" arrivalSpeed="12.64" duration="332.00" routeLength="1524.57" waitingTime="194.00" waitingCount="1" stopTime="0.00" timeLoss="213.63" rerouteNo="0" devices="tripinfo_S_E_8" vType="standard_car" speedFactor="0.94" vaporized=""/>
    <tripinfo id="S_W_166" depart="180.00" departLane="S2TL_0" departPos="5.10" departSpeed="0.00" departDelay="169.00" arrival="340.00" arrivalLane="TL2W_0" arrivalPos="750.00" arrivalSpeed="13.66" duration="160.00" routeLength="1524.57" waitingTime="28.00" waitingCount="1" stopTime="0.00" timeLoss="49.71" rerouteNo="0" devices="tripinfo_S_W_166" vType="standard_car" speedFactor="1.00" vaporized=""/>
    <tripinfo id="S_E_94" depart="136.00" departLane="N2TL_0" departPos="5.10" departSpeed="0.00" departDelay="132.00" arrival="341.00" arrivalLane="TL2E_2" arrivalPos="750.00" arrivalSpeed="14.83" duration="205.00" routeLength="1524.57" waitingTime="80.00" waitingCount="1" stopTime="0.00" timeLoss="103.79" rerouteNo="0" devices="tripinfo_S_E_94" vType="standard_car" speedFactor="1.09" vaporized=""/>
    <tripinfo id="S_E_71" depart="102.00" departLane="N2TL_0" departPos="5.10" departSpeed="0.00" departDelay="100.00" arrival="343.00" arrivalLane="TL2E_0" arrivalPos="750.00" arrivalSpeed="13.25" duration="241.00" routeLength="1524.57" waitingTime="106.00" waitingCount="1" stopTime="0.00" timeLoss="127.57" rerouteNo="0" devices="tripinfo_S_E_71" vType="standard_car" speedFactor="0.97" vaporized=""/>
    <tripinfo id="S_W_153" depart="156.00" departLane="S2TL_0" departPos="5.10" departSpeed="0.00" departDelay="147.00" arrival="343.00" arrivalLane="TL2W_0" arrivalPos="750.00" arrivalSpeed="12.68" duration="187.00" routeLength="1524.57" waitingTime="45.00" waitingCount="1" stopTime="0.00" timeLoss="67.15" rerouteNo="0" devices="tripinfo_S_W_153" vType="standard_car" speedFactor="0.93" vaporized=""/>
    <tripinfo id="S_E_72" depart="107.00" departLane="N2TL_0" departPos="5.10" departSpeed="0.00" departDelay="105.00" arrival="347.00" arrivalLane="TL2E_0" arrivalPos="750.00" arrivalSpeed="12.70" duration="240.00" routeLength="1524.57" waitingTime="102.00" waitingCount="1" stopTime="0.00" timeLoss="122.37" rerouteNo="0" devices="tripinfo_S_E_72" vType="standard_car" speedFactor="0.94" vaporized=""/>
    <tripinfo id="S_W_171" depart="189.00" departLane="S2TL_0" departPos="5.10" departSpeed="0.00" departDelay="178.00" arrival="348.00" arrivalLane="TL2W_0" arrivalPos="750.00" arrivalSpeed="12.28" duration="159.00" routeLength="1524.57" waitingTime="15.00" waitingCount="2" stopTime="0.00" timeLoss="36.00" rerouteNo="0" devices="tripinfo_S_W_171" vType="standard_car" speedFactor="0.90" vaporized=""/>
    <tripinfo id="N_E_131" depart="190.00" departLane="N2TL_0" departPos="5.10" departSpeed="0.00" departDelay="182.00" arrival="349.00" arrivalLane="TL2E_1" arrivalPos="750.00" arrivalSpeed="14.83" duration="159.00" routeLength="1524.57" waitingTime="30.00" waitingCount="1" stopTime="0.00" timeLoss="55.44" rerouteNo="0" devices="tripinfo_N_E_131" vType="standard_car" speedFactor="1.07" vaporized=""/>
    <tripinfo id="S_E_159" depart="217.00" departLane="N2TL_0" departPos="5.10" departSpeed="0.00" departDelay="207.00" arrival="351.00" arrivalLane="TL2E_2" arrivalPos="750.00" arrivalSpeed="15.39" duration="134.00" routeLength="1524.57" waitingTime="7.00" waitingCount="1" stopTime="0.00" timeLoss="36.64" rerouteNo="0" devices="tripinfo_S_E_159" vType="standard_car" speedFactor="1.14" vaporized=""/>
    <tripinfo id="S_W_187" depart="213.00" departLane="S2TL_0" departPos="5.10" departSpeed="0.00" departDelay="200.00" arrival="351.00" arrivalLane="TL2W_0" arrivalPos="750.00" arrivalSpeed="12.24" duration="138.00" routeLength="1524.57" waitingTime="0.00" waitingCount="0" stopTime="0.00" timeLoss="13.50" rerouteNo="0" devices="tripinfo_S_W_187" vType="standard_car" speedFactor="0.89" vaporized=""/>
    <tripinfo id="N_E_154" depart="213.00" departLane="N2TL_0" departPos="5.10" departSpeed="0.00" departDelay="204.00" arrival="351.00" arrivalLane="TL2E_1" arrivalPos="750.00" arrivalSpeed="14.78" duration="138.00" routeLength="1524.57" waitingTime="8.00" waitingCount="1" stopTime="0.00" timeLoss="33.91" rerouteNo="0" devices="tripinfo_N_E_154" vType="standard_car" speedFactor="1.06" vaporized=""/>
    <tripinfo id="N_E_104" depart="149.00" departLane="N2TL_0" departPos="5.10" departSpeed="0.00" departDelay="144.00" arrival="354.00" arrivalLane="TL2E_0" arrivalPos="750.00" arrivalSpeed="12.20" duration="205.00" routeLength="1524.57" waitingTime="62.00" waitingCount="1" stopTime="0.00" timeLoss="81.38" rerouteNo="0" devices="tripinfo_N_E_104" vType="standard_car" speedFactor="0.89" vaporized=""/>
    <tripinfo id="N_E_110" depart="157.00" departLane="N2TL_0" departPos="5.10" departSpeed="0.00" departDelay="151.00" arrival="354.00" arrivalLane="TL2E_1" arrivalPos="750.00" arrivalSpeed="12.60" duration="197.00" routeLength="1524.57" waitingTime="55.00" waitingCount="1" stopTime="0.00" timeLoss="77.65" rerouteNo="0" devices="tripinfo_N_E_110" vType="standard_car" speedFactor="0.93" vaporized=""/>
    <tripinfo id="E_S_157" depart="138.00" departLane="E2TL_0" departPos="5.10" departSpeed="0.00" departDelay="128.00" arrival="368.00" arrivalLane="TL2S_0" arrivalPos="750.00" arrivalSpeed="14.53" duration="230.00" routeLength="1524.57" waitingTime="105.00" waitingCount="1" stopTime="0.00" timeLoss="127.62" rerouteNo="0" devices="tripinfo_E_S_157" vType="standard_car" speedFactor="1.08" vaporized=""/>
    <tripinfo id="W_N_183" depart="235.00" departLane="W2TL_0" departPos="5.10" departSpeed="0.00" departDelay="223.00" arrival="370.00" arrivalLane="TL2N_1" arrivalPos="750.00" arrivalSpeed="14.92" duration="135.00" routeLength="1524.57" waitingTime="9.00" waitingCount="1" stopTime="0.00" timeLoss="32.56" rerouteNo="0" devices="tripinfo_W_N_183" vType="standard_car" speedFactor="1.08" vaporized=""/>
    <tripinfo id="W_N_126" depart="164.00" departLane="W2TL_0" departPos="5.10" departSpeed="0.00" departDelay="157.00" arrival="370.00" arrivalLane="TL2N_0" arrivalPos="750.00" arrivalSpeed="13.96" duration="206.00" routeLength="1524.57" waitingTime="78.00" waitingCount="2" stopTime="0.00" timeLoss="99.19" rerouteNo="0" devices="tripinfo_W_N_126" vType="standard_car" speedFactor="1.03" vaporized=""/>
    <tripinfo id="W_N_228" depart="254.00" departLane="W2TL_0" departPos="5.10" departSpeed="0.00" departDelay="235.00" arrival="371.00" arrivalLane="TL2N_2" arrivalPos="750.00" arrivalSpeed="14.99" duration="117.00" routeLength="1524.57" waitingTime="0.00" waitingCount="0" stopTime="0.00" timeLoss="15.54" rerouteNo="0" devices="tripinfo_W_N_228" vType="standard_car" speedFactor="1.09" vaporized=""/>
    <tripinfo id="E_S_169" depart="148.00" departLane="E2TL_0" departPos="5.10" departSpeed="0.00" departDelay="137.00" arrival="377.00" arrivalLane="TL2S_0" arrivalPos="750.00" arrivalSpeed="12.80" duration="229.00" routeLength="1524.57" waitingTime="91.00" waitingCount="1" stopTime="0.00" timeLoss="111.31" rerouteNo="0" devices="tripinfo_E_S_169" vType="standard_car" speedFactor="0.94" vaporized=""/>
    <tripinfo id="W_N_236" depart="273.00" departLane="W2TL_0" departPos="5.10" departSpeed="0.00" departDelay="252.00" arrival="390.00" arrivalLane="TL2N_0" arrivalPos="750.00" arrivalSpeed="14.03" duration="117.00" routeLength="1524.57" waitingTime="0.00" waitingCount="0" stopTime="0.00" timeLoss="11.01" rerouteNo="0" devices="tripinfo_W_N_236" vType="standard_car" speedFactor="1.04" vaporized=""/>
    <tripinfo id="E_S_267" depart="292.00" departLane="E2TL_0" departPos="5.10" departSpeed="0.00" departDelay="264.00" arrival="424.00" arrivalLane="TL2S_0" arrivalPos="750.00" arrivalSpeed="12.31" duration="132.00" routeLength="1524.57" waitingTime="0.00" waitingCount="0" stopTime="0.00" timeLoss="11.07" rerouteNo="0" devices="tripinfo_E_S_267" vType="standard_car" speedFactor="0.92" vaporized=""/>
    <tripinfo id="S_W_239" depart="259.00" departLane="S2TL_0" departPos="5.10" departSpeed="0.00" departDelay="238.00" arrival="464.00" arrivalLane="TL2W_0" arrivalPos="750.00" arrivalSpeed="15.18" duration="205.00" routeLength="1524.57" waitingTime="83.00" waitingCount="1" stopTime="0.00" timeLoss="106.62" rerouteNo="0" devices="tripinfo_S_W_239" vType="standard_car" speedFactor="1.13" vaporized=""/>
    <tripinfo id="S_W_293" depart="306.00" departLane="S2TL_0" departPos="5.10" departSpeed="0.00" departDelay="273.00" arrival="467.00" arrivalLane="TL2W_1" arrivalPos="750.00" arrivalSpeed="15.50" duration="161.00" routeLength="1524.57" waitingTime="40.00" waitingCount="1" stopTime="0.00" timeLoss="63.70" rerouteNo="0" devices="tripinfo_S_W_293" vType="standard_car" speedFactor="1.14" vaporized=""/>
    <tripinfo id="S_E_210" depart="285.00" departLane="N2TL_0" departPos="5.10" departSpeed="0.00" departDelay="268.00" arrival="468.00" arrivalLane="TL2E_1" arrivalPos="750.00" arrivalSpeed="15.28" duration="183.00" routeLength="1524.57" waitingTime="60.00" waitingCount="1" stopTime="0.00" timeLoss="82.96" rerouteNo="0" devices="tripinfo_S_E_210" vType="standard_car" speedFactor="1.10" vaporized=""/>
    <tripinfo id="N_E_194" depart="250.00" departLane="N2TL_0" departPos="5.10" departSpeed="0.00" departDelay="235.00" arrival="469.00" arrivalLane="TL2E_0" arrivalPos="750.00" arrivalSpeed="13.46" duration="219.00" routeLength="1524.57" waitingTime="89.00" waitingCount="1" stopTime="0.00" timeLoss="108.38" rerouteNo="0" devices="tripinfo_N_E_194" vType="standard_car" speedFactor="1.00" vaporized=""/>
    <tripinfo id="S_E_213" depart="295.00" departLane="N2TL_0" departPos="5.10" departSpeed="0.00" departDelay="278.00" arrival="470.00" arrivalLane="TL2E_1" arrivalPos="750.00" arrivalSpeed="15.25" duration="175.00" routeLength="1524.57" waitingTime="52.00" waitingCount="1" stopTime="0.00" timeLoss="74.46" rerouteNo="0" devices="tripinfo_S_E_213" vType="standard_car" speedFactor="1.10" vaporized=""/>
    <tripinfo id="S_W_241" depart="264.00" departLane="S2TL_0" departPos="5.10" departSpeed="0.00" departDelay="242.00" arrival="471.00" arrivalLane="TL2W_0" arrivalPos="750.00" arrivalSpeed="13.79" duration="207.00" routeLength="1524.57" waitingTime="74.00" waitingCount="1" stopTime="0.00" timeLoss="97.39" rerouteNo="0" devices="tripinfo_S_W_241" vType="standard_car" speedFactor="1.01" vaporized=""/>
    <tripinfo id="S_W_353" depart="354.00" departLane="S2TL_0" departPos="5.10" departSpeed="0.00" departDelay="305.00" arrival="473.00" arrivalLane="TL2W_0" arrivalPos="750.00" arrivalSpeed="14.17" duration="119.00" routeLength="1524.57" waitingTime="0.00" waitingCount="0" stopTime="0.00" timeLoss="12.28" rerouteNo="0" devices="tripinfo_S_W_353" vType="standard_car" speedFactor="1.03" vaporized=""/>
    <tripinfo id="N_E_224" depart="315.00" departLane="N2TL_0" departPos="5.10" departSpeed="0.00" departDelay="296.00" arrival="476.00" arrivalLane="TL2E_0" arrivalPos="750.00" arrivalSpeed="14.10" duration="161.00" routeLength="1524.57" waitingTime="30.00" waitingCount="1" stopTime="0.00" timeLoss="51.60" rerouteNo="0" devices="tripinfo_N_E_224" vType="standard_car" speedFactor="1.02" vaporized=""/>
    <tripinfo id="N_E_197" depart="254.00" departLane="N2TL_0" departPos="5.10" departSpeed="0.00" departDelay="239.00" arrival="479.00" arrivalLane="TL2E_0" arrivalPos="750.00" arrivalSpeed="11.71" duration="225.00" routeLength="1524.57" waitingTime="76.00" waitingCount="1" stopTime="0.00" timeLoss="98.10" rerouteNo="0" devices="tripinfo_N_E_197" vType="standard_car" speedFactor="0.87" vaporized=""/>
    <tripinfo id="S_E_262" depart="354.00" departLane="N2TL_0" departPos="5.10" departSpeed="0.00" departDelay="327.00" arrival="483.00" arrivalLane="TL2E_3" arrivalPos="750.00" arrivalSpeed="14.23" duration="129.00" routeLength="1524.57" waitingTime="0.00" waitingCount="0" stopTime="0.00" timeLoss="23.17" rerouteNo="0" devices="tripinfo_S_E_262" vType="standard_car" speedFactor="1.04" vaporized=""/>
    <tripinfo id="N_E_250" depart="339.00" departLane="N2TL_0" departPos="5.10" departSpeed="0.00" departDelay="315.00" arrival="484.00" arrivalLane="TL2E_1" arrivalPos="750.00" arrivalSpeed="12.65" duration="145.00" routeLength="1524.57" waitingTime="5.00" waitingCount="1" stopTime="0.00" timeLoss="26.52" rerouteNo="0" devices="tripinfo_N_E_250" vType="standard_car" speedFactor="0.93" vaporized=""/>
    <tripinfo id="N_E_256" depart="344.00" departLane="N2TL_0" departPos="5.10" departSpeed="0.00" departDelay="319.00" arrival="484.00" arrivalLane="TL2E_2" arrivalPos="750.00" arrivalSpeed="13.36" duration="140.00" routeLength="1524.57" waitingTime="3.00" waitingCount="1" stopTime="0.00" timeLoss="25.24" rerouteNo="0" devices="tripinfo_N_E_256" vType="standard_car" speedFactor="0.96" vaporized=""/>
    <tripinfo id="S_W_366" depart="373.00" departLane="S2TL_0" departPos="5.10" departSpeed="0.00" departDelay="321.00" arrival="485.00" arrivalLane="TL2W_0" arrivalPos="750.00" arrivalSpeed="15.14" duration="112.00" routeLength="1524.57" waitingTime="0.00" waitingCount="0" stopTime="0.00" timeLoss="12.88" rerouteNo="0" devices="tripinfo_S_W_366" vType="standard_car" speedFactor="1.11" vaporized=""/>
    <tripinfo id="S_E_237" depart="319.00" departLane="N2TL_0" departPos="5.10" departSpeed="0.00" departDelay="298.00" arrival="485.00" arrivalLane="TL2E_0" arrivalPos="750.00" arrivalSpeed="11.85" duration="166.00" routeLength="1524.57" waitingTime="20.00" waitingCount="1" stopTime="0.00" timeLoss="41.43" rerouteNo="0" devices="tripinfo_S_E_237" vType="standard_car" speedFactor="0.88" vaporized=""/>
    <tripinfo id="N_E_263" depart="359.00" departLane="N2TL_0" departPos="5.10" departSpeed="0.00" departDelay="332.00" arrival="489.00" arrivalLane="TL2E_0" arrivalPos="750.00" arrivalSpeed="13.22" duration="130.00" routeLength="1524.57" waitingTime="0.00" waitingCount="0" stopTime="0.00" timeLoss="13.83" rerouteNo="0" devices="tripinfo_N_E_263" vType="standard_car" speedFactor="0.96" vaporized=""/>
    <tripinfo id="E_S_339" depart="386.00" departLane="E2TL_0" departPos="5.10" departSpeed="0.00" departDelay="342.00" arrival="511.00" arrivalLane="TL2S_0" arrivalPos="750.00" arrivalSpeed="16.10" duration="125.00" routeLength="1524.57" waitingTime="6.00" waitingCount="1" stopTime="0.00" timeLoss="30.48" rerouteNo="0" devices="tripinfo_E_S_339" vType="standard_car" speedFactor="1.17" vaporized=""/>
    <tripinfo id="W_N_315" depart="352.00" departLane="W2TL_0" departPos="5.10" departSpeed="0.00" departDelay="313.00" arrival="512.00" arrivalLane="TL2N_0" arrivalPos="750.00" arrivalSpeed="15.67" duration="160.00" routeLength="1524.57" waitingTime="41.00" waitingCount="1" stopTime="0.00" timeLoss="63.71" rerouteNo="0" devices="tripinfo_W_N_315" vType="standard_car" speedFactor="1.15" vaporized=""/>
    <tripinfo id="E_S_371" depart="420.00" departLane="E2TL_0" departPos="5.10" departSpeed="0.00" departDelay="367.00" arrival="550.00" arrivalLane="TL2S_0" arrivalPos="750.00" arrivalSpeed="12.81" duration="130.00" routeLength="1524.57" waitingTime="0.00" waitingCount="0" stopTime="0.00" timeLoss="11.25" rerouteNo="0" devices="tripinfo_E_S_371" vType="standard_car" speedFactor="0.94" vaporized=""/>
    <tripinfo id="W_N_422" depart="462.00" departLane="W2TL_0" departPos="5.10" departSpeed="0.00" departDelay="392.00" arrival="586.00" arrivalLane="TL2N_0" arrivalPos="750.00" arrivalSpeed="12.96" duration="124.00" routeLength="1524.57" waitingTime="0.00" waitingCount="0" stopTime="0.00" timeLoss="10.19" rerouteNo="0" devices="tripinfo_W_N_422" vType="standard_car" speedFactor="0.97" vaporized=""/>
    <tripinfo id="W_N_423" depart="466.00" departLane="W2TL_0" departPos="5.10" departSpeed="0.00" departDelay="396.00" arrival="587.00" arrivalLane="TL2N_1" arrivalPos="750.00" arrivalSpeed="13.67" duration="121.00" routeLength="1524.57" waitingTime="0.00" waitingCount="0" stopTime="0.00" timeLoss="10.96" rerouteNo="0" devices="tripinfo_W_N_423" vType="standard_car" speedFactor="1.01" vaporized=""/>
    <tripinfo id="W_N_424" depart="471.00" departLane="W2TL_0" departPos="5.10" departSpeed="0.00" departDelay="400.00" arrival="592.00" arrivalLane="TL2N_0" arrivalPos="750.00" arrivalSpeed="13.72" duration="121.00" routeLength="1524.57" waitingTime="0.00" waitingCount="0" stopTime="0.00" timeLoss="11.30" rerouteNo="0" devices="tripinfo_W_N_424" vType="standard_car" speedFactor="1.01" vaporized=""/>
    <tripinfo id="E_S_438" depart="487.00" departLane="E2TL_0" departPos="5.10" departSpeed="0.00" departDelay="413.00" arrival="594.00" arrivalLane="TL2S_0" arrivalPos="750.00" arrivalSpeed="16.03" duration="107.00" routeLength="1524.57" waitingTime="0.00" waitingCount="0" stopTime="0.00" timeLoss="11.82" rerouteNo="0" devices="tripinfo_E_S_438" vType="standard_car" speedFactor="1.17" vaporized=""/>
    <tripinfo id="W_N_468" depart="499.00" departLane="W2TL_0" departPos="5.10" departSpeed="0.00" departDelay="413.00" arrival="616.00" arrivalLane="TL2N_1" arrivalPos="750.00" arrivalSpeed="14.44" duration="117.00" routeLength="1524.57" waitingTime="0.00" waitingCount="0" stopTime="0.00" timeLoss="12.09" rerouteNo="0" devices="tripinfo_W_N_468" vType="standard_car" speedFactor="1.06" vaporized=""/>
    <tripinfo id="W_N_467" depart="494.00" departLane="W2TL_0" departPos="5.10" departSpeed="0.00" departDelay="408.00" arrival="617.00" arrivalLane="TL2N_0" arrivalPos="750.00" arrivalSpeed="13.79" duration="123.00" routeLength="1524.57" waitingTime="0.00" waitingCount="0" stopTime="0.00" timeLoss="11.88" rerouteNo="0" devices="tripinfo_W_N_467" vType="standard_car" speedFactor="1.00" vaporized=""/>
    <tripinfo id="E_S_501" depart="549.00" departLane="E2TL_0" departPos="5.10" departSpeed="0.00" departDelay="449.00" arrival="680.00" arrivalLane="TL2S_0" arrivalPos="750.00" arrivalSpeed="12.28" duration="131.00" routeLength="1524.57" waitingTime="0.00" waitingCount="0" stopTime="0.00" timeLoss="10.68" rerouteNo="0" devices="tripinfo_E_S_501" vType="standard_car" speedFactor="0.92" vaporized=""/>
    <tripinfo id="W_N_536" depart="567.00" departLane="W2TL_0" departPos="5.10" departSpeed="0.00" departDelay="455.00" arrival="695.00" arrivalLane="TL2N_0" arrivalPos="750.00" arrivalSpeed="12.67" duration="128.00" routeLength="1524.57" waitingTime="0.00" waitingCount="0" stopTime="0.00" timeLoss="11.03" rerouteNo="0" devices="tripinfo_W_N_536" vType="standard_car" speedFactor="0.95" vaporized=""/>
    <tripinfo id="E_S_529" depart="572.00" departLane="E2TL_0" departPos="5.10" departSpeed="0.00" departDelay="463.00" arrival="695.00" arrivalLane="TL2S_0" arrivalPos="750.00" arrivalSpeed="13.41" duration="123.00" routeLength="1524.57" waitingTime="0.00" waitingCount="0" stopTime="0.00" timeLoss="11.40" rerouteNo="0" devices="tripinfo_E_S_529" vType="standard_car" speedFactor="0.99" vaporized=""/>
    <tripinfo id="S_N_19" depart="4.00" departLane="S2TL_0" departPos="5.10" departSpeed="0.00" departDelay="4.00" arrival="717.00" arrivalLane="TL2N_0" arrivalPos="750.00" arrivalSpeed="15.67" duration="713.00" routeLength="1528.50" waitingTime="593.00" waitingCount="2" stopTime="0.00" timeLoss="617.29" rerouteNo="0" devices="tripinfo_S_N_19" vType="standard_car" speedFactor="1.16" vaporized=""/>
    <tripinfo id="N_W_0" depart="0.00" departLane="N2TL_0" departPos="5.10" departSpeed="0.00" departDelay="0.00" arrival="718.00" arrivalLane="TL2W_0" arrivalPos="750.00" arrivalSpeed="14.59" duration="718.00" routeLength="1503.93" waitingTime="594.00" waitingCount="1" stopTime="0.00" timeLoss="614.56" rerouteNo="0" devices="tripinfo_N_W_0" vType="standard_car" speedFactor="1.06" vaporized=""/>
    <tripinfo id="S_N_40" depart="14.00" departLane="S2TL_0" departPos="5.10" departSpeed="0.00" departDelay="13.00" arrival="721.00" arrivalLane="TL2N_0" arrivalPos="750.00" arrivalSpeed="14.01" duration="707.00" routeLength="1528.50" waitingTime="577.00" waitingCount="2" stopTime="0.00" timeLoss="599.43" rerouteNo="0" devices="tripinfo_S_N_40" vType="standard_car" speedFactor="1.03" vaporized=""/>
    <tripinfo id="N_S_51" depart="78.00" departLane="N2TL_0" departPos="5.10" departSpeed="0.00" departDelay="77.00" arrival="722.00" arrivalLane="TL2S_3" arrivalPos="750.00" arrivalSpeed="16.01" duration="644.00" routeLength="1528.50" waitingTime="524.00" waitingCount="1" stopTime="0.00" timeLoss="549.83" rerouteNo="0" devices="tripinfo_N_S_51" vType="standard_car" speedFactor="1.17" vaporized=""/>