<?xml version="1.0" encoding="UTF-8"?>

<!-- generated on Tue Feb 19 23:13:07 2019 by Eclipse SUMO Version 1.1.0
<configuration xmlns:xsi="http://www.w3.org/2001/XMLSchema-instance" xsi:noNamespaceSchemaLocation="http://sumo.dlr.de/xsd/sumoConfiguration.xsd">

    <input>
        <net-file value="environment/tlcs.net.xml"/>
        <route-files value="environment/tlcs_test.rou.xml"/>
    </input>

    <output>
        <tripinfo-output value="environment/tripinfo.xml"/>
    </output>

    <time>
        <begin value="0"/>
    </time>

    <processing>
        <time-to-teleport value="-1"/>
    </processing>

    <report>
        <no-step-log value="true"/>
    </report>

    <traci_server>
        <remote-port value="50961"/>
    </traci_server>

</configuration>
-->

<tripinfos xmlns:xsi="http://www.w3.org/2001/XMLSchema-instance" xsi:noNamespaceSchemaLocation="http://sumo.dlr.de/xsd/tripinfo_file.xsd">
    <tripinfo id="S_N_19" depart="4.00" departLane="S2TL_0" departPos="5.10" departSpeed="0.00" departDelay="4.00" arrival="112.00" arrivalLane="TL2N_0" arrivalPos="750.00" arrivalSpeed="15.60" duration="108.00" routeLength="1528.50" waitingTime="1.00" waitingCount="1" stopTime="0.00" timeLoss="12.95" rerouteNo="0" devices="tripinfo_S_N_19" vType="standard_car" speedFactor="1.16" vaporized=""/>
    <tripinfo id="N_W_0" depart="0.00" departLane="N2TL_0" departPos="5.10" departSpeed="0.00" departDelay="0.00" arrival="117.00" arrivalLane="TL2W_0" arrivalPos="750.00" arrivalSpeed="14.25" duration="117.00" routeLength="1503.93" waitingTime="0.00" waitingCount="0" stopTime="0.00" timeLoss="13.46" rerouteNo="0" devices="tripinfo_N_W_0" vType="standard_car" speedFactor="1.06" vaporized=""/>
    <tripinfo id="S_N_35" depart="10.00" departLane="S2TL_0" departPos="5.10" departSpeed="0.00" departDelay="9.00" arrival="129.00" arrivalLane="TL2N_1" arrivalPos="750.00" arrivalSpeed="13.87" duration="119.00" routeLength="1528.50" waitingTime="0.00" waitingCount="0" stopTime="0.00" timeLoss="11.03" rerouteNo="0" devices="tripinfo_S_N_35" vType="standard_car" speedFactor="1.02" vaporized=""/>
    <tripinfo id="S_N_15" depart="0.00" departLane="S2TL_0" departPos="5.10" departSpeed="0.00" departDelay="0.00" arrival="130.00" arrivalLane="TL2N_0" arrivalPos="750.00" arrivalSpeed="12.80" duration="130.00" routeLength="1528.50" waitingTime="0.00" waitingCount="0" stopTime="0.00" timeLoss="10.40" rerouteNo="0" devices="tripinfo_S_N_15" vType="standard_car" speedFactor="0.93" vaporized=""/>
    <tripinfo id="S_N_40" depart="14.00" departLane="S2TL_0" departPos="5.10" departSpeed="0.00" departDelay="13.00" arrival="133.00" arrivalLane="TL2N_0" arrivalPos="750.00" arrivalSpeed="13.85" duration="119.00" routeLength="1528.50" waitingTime="1.00" waitingCount="1" stopTime="0.00" timeLoss="11.66" rerouteNo="0" devices="tripinfo_S_N_40" vType="standard_car" speedFactor="1.03" vaporized=""/>
    <tripinfo id="S_N_44" depart="20.00" departLane="S2TL_0" departPos="5.10" departSpeed="0.00" departDelay="19.00" arrival="137.00" arrivalLane="TL2N_0" arrivalPos="750.00" arrivalSpeed="14.05" duration="117.00" routeLength="1528.50" waitingTime="0.00" waitingCount="0" stopTime="0.00" timeLoss="11.44" rerouteNo="0" devices="tripinfo_S_N_44" vType="standard_car" speedFactor="1.04" vaporized=""/>
    <tripinfo id="N_S_22" depart="18.00" departLane="N2TL_0" departPos="5.10" departSpeed="0.00" departDelay="18.00" arrival="142.00" arrivalLane="TL2S_0" arrivalPos="750.00" arrivalSpeed="13.19" duration="124.00" routeLength="1528.50" waitingTime="0.00" waitingCount="0" stopTime="0.00" timeLoss="10.31" rerouteNo="0" devices="tripinfo_N_S_22" vType="standard_car" speedFactor="0.98" vaporized=""/>
    <tripinfo id="S_N_46" depart="25.00" departLane="S2TL_0" departPos="5.10" departSpeed="0.00" departDelay="24.00" arrival="146.00" arrivalLane="TL2N_0" arrivalPos="750.00" arrivalSpeed="13.57" duration="121.00" routeLength="1528.50" waitingTime="0.00" waitingCount="0" stopTime="0.00" timeLoss="10.53" rerouteNo="0" devices="tripinfo_S_N_46" vType="standard_car" speedFactor="1.00" vaporized=""/>
    <tripinfo id="S_N_61" depart="44.00" departLane="S2TL_0" departPos="5.10" departSpeed="0.00" departDelay="42.00" arrival="154.00" arrivalLane="TL2N_0" arrivalPos="750.00" arrivalSpeed="15.23" duration="110.00" routeLength="1528.50" waitingTime="0.00" waitingCount="0" stopTime="0.00" timeLoss="11.57" rerouteNo="0" devices="tripinfo_S_N_61" vType="standard_car" speedFactor="1.12" vaporized=""/>
    <tripinfo id="N_S_32" depart="40.00" departLane="N2TL_0" departPos="5.10" departSpeed="0.00" departDelay="39.00" arrival="160.00" arrivalLane="TL2S_0" arrivalPos="750.00" arrivalSpeed="13.88" duration="120.00" routeLength="1528.50" waitingTime="0.00" waitingCount="0" stopTime="0.00" timeLoss="10.28" rerouteNo="0" devices="tripinfo_N_S_32" vType="standard_car" speedFactor="1.01" vaporized=""/>
    <tripinfo id="N_S_37" depart="53.00" departLane="N2TL_0" departPos="5.10" departSpeed="0.00" departDelay="52.00" arrival="162.00" arrivalLane="TL2S_2" arrivalPos="750.00" arrivalSpeed="16.28" duration="109.00" routeLength="1528.50" waitingTime="0.00" waitingCount="0" stopTime="0.00" timeLoss="15.17" rerouteNo="0" devices="tripinfo_N_S_37" vType="standard_car" speedFactor="1.18" vaporized=""/>
    <tripinfo id="N_S_25" depart="27.00" departLane="N2TL_0" departPos="5.10" departSpeed="0.00" departDelay="27.00" arrival="164.00" arrivalLane="TL2S_0" arrivalPos="750.00" arrivalSpeed="12.01" duration="137.00" routeLength="1528.50" waitingTime="0.00" waitingCount="0" stopTime="0.00" timeLoss="10.19" rerouteNo="0" devices="tripinfo_N_S_25" vType="standard_car" speedFactor="0.87" vaporized=""/>
    <tripinfo id="S_N_47" depart="30.00" departLane="S2TL_0" departPos="5.10" departSpeed="0.00" departDelay="29.00" arrival="164.00" arrivalLane="TL2N_0" arrivalPos="750.00" arrivalSpeed="12.23" duration="134.00" routeLength="1528.50" waitingTime="0.00" waitingCount="0" stopTime="0.00" timeLoss="10.97" rerouteNo="0" devices="tripinfo_S_N_47" vType="standard_car" speedFactor="0.90" vaporized=""/>
    <tripinfo id="N_S_29" depart="36.00" departLane="N2TL_0" departPos="5.10" departSpeed="0.00" departDelay="36.00" arrival="165.00" arrivalLane="TL2S_1" arrivalPos="750.00" arrivalSpeed="12.52" duration="129.00" routeLength="1528.50" waitingTime="0.00" waitingCount="0" stopTime="0.00" timeLoss="10.27" rerouteNo="0" devices="tripinfo_N_S_29" vType="standard_car" speedFactor="0.93" vaporized=""/>
    <tripinfo id="N_S_24" depart="22.00" departLane="N2TL_0" departPos="5.10" departSpeed="0.00" departDelay="22.00" arrival="166.00" arrivalLane="TL2S_0" arrivalPos="750.00" arrivalSpeed="11.44" duration="144.00" routeLength="1528.50" waitingTime="0.00" waitingCount="0" stopTime="0.00" timeLoss="10.31" rerouteNo="0" devices="tripinfo_N_S_24" vType="standard_car" speedFactor="0.83" vaporized=""/>
    <tripinfo id="N_S_26" depart="31.00" departLane="N2TL_0" departPos="5.10" departSpeed="0.00" departDelay="31.00" arrival="167.00" arrivalLane="TL2S_1" arrivalPos="750.00" arrivalSpeed="12.68" duration="136.00" routeLength="1528.50" waitingTime="0.00" waitingCount="0" stopTime="0.00" timeLoss="15.32" rerouteNo="0" devices="tripinfo_N_S_26" vType="standard_car" speedFactor="0.92" vaporized=""/>
    <tripinfo id="N_S_38" depart="58.00" departLane="N2TL_0" departPos="5.10" departSpeed="0.00" departDelay="57.00" arrival="170.00" arrivalLane="TL2S_1" arrivalPos="750.00" arrivalSpeed="14.98" duration="112.00" routeLength="1528.50" waitingTime="0.00" waitingCount="0" stopTime="0.00" timeLoss="12.15" rerouteNo="0" devices="tripinfo_N_S_38" vType="standard_car" speedFactor="1.10" vaporized=""/>
    <tripinfo id="N_S_34" depart="49.00" departLane="N2TL_0" departPos="5.10" departSpeed="0.00" departDelay="48.00" arrival="170.00" arrivalLane="TL2S_0" arrivalPos="750.00" arrivalSpeed="13.57" duration="121.00" routeLength="1528.50" waitingTime="0.00" waitingCount="0" stopTime="0.00" timeLoss="10.22" rerouteNo="0" devices="tripinfo_N_S_34" vType="standard_car" speedFactor="0.99" vaporized=""/>
    <tripinfo id="S_N_48" depart="35.00" departLane="S2TL_0" departPos="5.10" departSpeed="0.00" departDelay="34.00" arrival="171.00" arrivalLane="TL2N_0" arrivalPos="750.00" arrivalSpeed="12.05" duration="136.00" routeLength="1528.50" waitingTime="0.00" waitingCount="0" stopTime="0.00" timeLoss="10.10" rerouteNo="0" devices="tripinfo_S_N_48" vType="standard_car" speedFactor="0.88" vaporized=""/>
    <tripinfo id="S_N_56" depart="39.00" departLane="S2TL_0" departPos="5.10" departSpeed="0.00" departDelay="38.00" arrival="173.00" arrivalLane="TL2N_0" arrivalPos="750.00" arrivalSpeed="12.28" duration="134.00" routeLength="1528.50" waitingTime="0.00" waitingCount="0" stopTime="0.00" timeLoss="10.86" rerouteNo="0" devices="tripinfo_S_N_56" vType="standard_car" speedFactor="0.90" vaporized=""/>
    <tripinfo id="N_S_42" depart="63.00" departLane="N2TL_0" departPos="5.10" departSpeed="0.00" departDelay="62.00" arrival="176.00" arrivalLane="TL2S_0" arrivalPos="750.00" arrivalSpeed="15.01" duration="113.00" routeLength="1528.50" waitingTime="0.00" waitingCount="0" stopTime="0.00" timeLoss="11.88" rerouteNo="0" devices="tripinfo_N_S_42" vType="standard_car" speedFactor="1.09" vaporized=""/>
    <tripinfo id="S_N_75" depart="57.00" departLane="S2TL_0" departPos="5.10" departSpeed="0.00" departDelay="55.00" arrival="180.00" arrivalLane="TL2N_1" arrivalPos="750.00" arrivalSpeed="13.21" duration="123.00" routeLength="1528.50" waitingTime="0.00" waitingCount="0" stopTime="0.00" timeLoss="11.22" rerouteNo="0" devices="tripinfo_S_N_75" vType="standard_car" speedFactor="0.98" vaporized=""/>
    <tripinfo id="S_N_74" depart="53.00" departLane="S2TL_0" departPos="5.10" departSpeed="0.00" departDelay="51.00" arrival="180.00" arrivalLane="TL2N_0" arrivalPos="750.00" arrivalSpeed="13.15" duration="127.00" routeLength="1528.50" waitingTime="0.00" waitingCount="0" stopTime="0.00" timeLoss="11.13" rerouteNo="0" devices="tripinfo_S_N_74" vType="standard_car" speedFactor="0.96" vaporized=""/>
    <tripinfo id="S_N_65" depart="48.00" departLane="S2TL_0" departPos="5.10" departSpeed="0.00" departDelay="46.00" arrival="184.00" arrivalLane="TL2N_0" arrivalPos="750.00" arrivalSpeed="12.20" duration="136.00" routeLength="1528.50" waitingTime="0.00" waitingCount="0" stopTime="0.00" timeLoss="10.95" rerouteNo="0" devices="tripinfo_S_N_65" vType="standard_car" speedFactor="0.88" vaporized=""/>
    <tripinfo id="S_N_77" depart="62.00" departLane="S2TL_0" departPos="5.10" departSpeed="0.00" departDelay="59.00" arrival="185.00" arrivalLane="TL2N_1" arrivalPos="750.00" arrivalSpeed="13.62" duration="123.00" routeLength="1528.50" waitingTime="0.00" waitingCount="0" stopTime="0.00" timeLoss="10.63" rerouteNo="0" devices="tripinfo_S_N_77" vType="standard_car" speedFactor="0.98" vaporized=""/>
    <tripinfo id="N_S_51" depart="78.00" departLane="N2TL_0" departPos="5.10" departSpeed="0.00" departDelay="77.00" arrival="185.00" arrivalLane="TL2S_1" arrivalPos="750.00" arrivalSpeed="16.08" duration="107.00" routeLength="1528.50" waitingTime="0.00" waitingCount="0" stopTime="0.00" timeLoss="12.09" rerouteNo="0" devices="tripinfo_N_S_51" vType="standard_car" speedFactor="1.17" vaporized=""/>
    <tripinfo id="N_S_43" depart="67.00" departLane="N2TL_0" departPos="5.10" departSpeed="0.00" departDelay="66.00" arrival="185.00" arrivalLane="TL2S_0" arrivalPos="750.00" arrivalSpeed="14.23" duration="118.00" routeLength="1528.50" waitingTime="0.00" waitingCount="0" stopTime="0.00" timeLoss="11.89" rerouteNo="0" devices="tripinfo_N_S_43" vType="standard_car" speedFactor="1.04" vaporized=""/>
    <tripinfo id="S_N_81" depart="67.00" departLane="S2TL_0" departPos="5.10" departSpeed="0.00" departDelay="64.00" arrival="188.00" arrivalLane="TL2N_0" arrivalPos="750.00" arrivalSpeed="13.46" duration="121.00" routeLength="1528.50" waitingTime="0.00" waitingCount="0" stopTime="0.00" timeLoss="10.28" rerouteNo="0" devices="tripinfo_S_N_81" vType="standard_car" speedFactor="1.00" vaporized=""/>
    <tripinfo id="S_N_82" depart="71.00" departLane="S2TL_0" departPos="5.10" departSpeed="0.00" departDelay="68.00" arrival="190.00" arrivalLane="TL2N_0" arrivalPos="750.00" arrivalSpeed="13.63" duration="119.00" routeLength="1528.50" waitingTime="0.00" waitingCount="0" stopTime="0.00" timeLoss="10.47" rerouteNo="0" devices="tripinfo_S_N_82" vType="standard_car" speedFactor="1.02" vaporized=""/>
    <tripinfo id="N_S_53" depart="83.00" departLane="N2TL_0" departPos="5.10" departSpeed="0.00" departDelay="82.00" arrival="201.00" arrivalLane="TL2S_0" arrivalPos="750.00" arrivalSpeed="14.89" duration="118.00" routeLength="1528.50" waitingTime="0.00" waitingCount="0" stopTime="0.00" timeLoss="16.90" rerouteNo="0" devices="tripinfo_N_S_53" vType="standard_car" speedFactor="1.10" vaporized=""/>
    <tripinfo id="S_N_98" depart="95.00" departLane="S2TL_0" departPos="5.10" departSpeed="0.00" departDelay="91.00" arrival="205.00" arrivalLane="TL2N_1" arrivalPos="750.00" arrivalSpeed="15.24" duration="110.00" routeLength="1528.50" waitingTime="0.00" waitingCount="0" stopTime="0.00" timeLoss="11.05" rerouteNo="0" devices="tripinfo_S_N_98" vType="standard_car" speedFactor="1.12" vaporized=""/>
    <tripinfo id="S_N_95" depart="90.00" departLane="S2TL_0" departPos="5.10" departSpeed="0.00" departDelay="86.00" arrival="206.00" arrivalLane="TL2N_0" arrivalPos="750.00" arrivalSpeed="14.34" duration="116.00" routeLength="1528.50" waitingTime="0.00" waitingCount="0" stopTime="0.00" timeLoss="11.00" rerouteNo="0" devices="tripinfo_S_N_95" vType="standard_car" speedFactor="1.06" vaporized=""/>
    <tripinfo id="N_S_62" depart="88.00" departLane="N2TL_0" departPos="5.10" departSpeed="0.00" departDelay="86.00" arrival="208.00" arrivalLane="TL2S_0" arrivalPos="750.00" arrivalSpeed="13.84" duration="120.00" routeLength="1528.50" waitingTime="0.00" waitingCount="0" stopTime="0.00" timeLoss="11.05" rerouteNo="0" devices="tripinfo_N_S_62" vType="standard_car" speedFactor="1.02" vaporized=""/>
    <tripinfo id="N_S_68" depart="92.00" departLane="N2TL_0" departPos="5.10" departSpeed="0.00" departDelay="90.00" arrival="210.00" arrivalLane="TL2S_1" arrivalPos="750.00" arrivalSpeed="14.01" duration="118.00" routeLength="1528.50" waitingTime="1.00" waitingCount="1" stopTime="0.00" timeLoss="11.79" rerouteNo="0" devices="tripinfo_N_S_68" vType="standard_car" speedFactor="1.04" vaporized=""/>
    <tripinfo id="S_N_89" depart="80.00" departLane="S2TL_0" departPos="5.10" departSpeed="0.00" departDelay="76.00" arrival="210.00" arrivalLane="TL2N_0" arrivalPos="750.00" arrivalSpeed="14.13" duration="130.00" routeLength="1528.50" waitingTime="1.00" waitingCount="1" stopTime="0.00" timeLoss="21.84" rerouteNo="0" devices="tripinfo_S_N_89" vType="standard_car" speedFactor="1.02" vaporized=""/>
    <tripinfo id="N_S_50" depart="72.00" departLane="N2TL_0" departPos="5.10" departSpeed="0.00" departDelay="71.00" arrival="213.00" arrivalLane="TL2S_0" arrivalPos="750.00" arrivalSpeed="11.77" duration="141.00" routeLength="1528.50" waitingTime="0.00" waitingCount="0" stopTime="0.00" timeLoss="11.50" rerouteNo="0" devices="tripinfo_N_S_50" vType="standard_car" speedFactor="0.85" vaporized=""/>
    <tripinfo id="N_W_69" depart="97.00" departLane="N2TL_0" departPos="5.10" departSpeed="0.00" departDelay="95.00" arrival="217.00" arrivalLane="TL2W_0" arrivalPos="750.00" arrivalSpeed="13.96" duration="120.00" routeLength="1503.93" waitingTime="0.00" waitingCount="0" stopTime="0.00" timeLoss="13.50" rerouteNo="0" devices="tripinfo_N_W_69" vType="standard_car" speedFactor="1.02" vaporized=""/>
    <tripinfo id="S_N_93" depart="84.00" departLane="S2TL_0" departPos="5.10" departSpeed="0.00" departDelay="80.00" arrival="217.00" arrivalLane="TL2N_0" arrivalPos="750.00" arrivalSpeed="12.63" duration="133.00" routeLength="1528.50" waitingTime="1.00" waitingCount="1" stopTime="0.00" timeLoss="12.98" rerouteNo="0" devices="tripinfo_S_N_93" vType="standard_car" speedFactor="0.92" vaporized=""/>
    <tripinfo id="S_N_106" depart="99.00" departLane="S2TL_0" departPos="5.10" departSpeed="0.00" departDelay="94.00" arrival="219.00" arrivalLane="TL2N_0" arrivalPos="750.00" arrivalSpeed="13.61" duration="120.00" routeLength="1528.50" waitingTime="0.00" waitingCount="0" stopTime="0.00" timeLoss="11.32" rerouteNo="0" devices="tripinfo_S_N_106" vType="standard_car" speedFactor="1.01" vaporized=""/>
    <tripinfo id="S_N_134" depart="122.00" departLane="S2TL_0" departPos="5.10" departSpeed="0.00" departDelay="114.00" arrival="239.00" arrivalLane="TL2N_0" arrivalPos="750.00" arrivalSpeed="16.97" duration="117.00" routeLength="1528.50" waitingTime="1.00" waitingCount="1" stopTime="0.00" timeLoss="26.40" rerouteNo="0" devices="tripinfo_S_N_134" vType="standard_car" speedFactor="1.23" vaporized=""/>
    <tripinfo id="N_S_84" depart="120.00" departLane="N2TL_0" departPos="5.10" departSpeed="0.00" departDelay="117.00" arrival="244.00" arrivalLane="TL2S_1" arrivalPos="750.00" arrivalSpeed="15.65" duration="124.00" routeLength="1528.50" waitingTime="4.00" waitingCount="1" stopTime="0.00" timeLoss="27.58" rerouteNo="0" devices="tripinfo_N_S_84" vType="standard_car" speedFactor="1.15" vaporized=""/>
    <tripinfo id="N_S_79" depart="115.00" departLane="N2TL_0" departPos="5.10" departSpeed="0.00" departDelay="112.00" arrival="244.00" arrivalLane="TL2S_0" arrivalPos="750.00" arrivalSpeed="14.97" duration="129.00" routeLength="1528.50" waitingTime="4.00" waitingCount="1" stopTime="0.00" timeLoss="26.99" rerouteNo="0" devices="tripinfo_N_S_79" vType="standard_car" speedFactor="1.09" vaporized=""/>
    <tripinfo id="S_N_140" depart="131.00" departLane="S2TL_0" departPos="5.10" departSpeed="0.00" departDelay="122.00" arrival="244.00" arrivalLane="TL2N_0" arrivalPos="750.00" arrivalSpeed="15.36" duration="113.00" routeLength="1528.50" waitingTime="0.00" waitingCount="0" stopTime="0.00" timeLoss="13.69" rerouteNo="0" devices="tripinfo_S_N_140" vType="standard_car" speedFactor="1.11" vaporized=""/>
    <tripinfo id="N_S_78" depart="110.00" departLane="N2TL_0" departPos="5.10" departSpeed="0.00" departDelay="107.00" arrival="247.00" arrivalLane="TL2S_0" arrivalPos="750.00" arrivalSpeed="13.88" duration="137.00" routeLength="1528.50" waitingTime="5.00" waitingCount="1" stopTime="0.00" timeLoss="27.56" rerouteNo="0" devices="tripinfo_N_S_78" vType="standard_car" speedFactor="1.01" vaporized=""/>
    <tripinfo id="S_N_129" depart="112.00" departLane="S2TL_0" departPos="5.10" departSpeed="0.00" departDelay="104.00" arrival="247.00" arrivalLane="TL2N_0" arrivalPos="750.00" arrivalSpeed="13.59" duration="135.00" routeLength="1528.50" waitingTime="1.00" waitingCount="1" stopTime="0.00" timeLoss="25.57" rerouteNo="0" devices="tripinfo_S_N_129" vType="standard_car" speedFactor="1.01" vaporized=""/>
    <tripinfo id="S_N_141" depart="136.00" departLane="S2TL_0" departPos="5.10" departSpeed="0.00" departDelay="127.00" arrival="248.00" arrivalLane="TL2N_1" arrivalPos="750.00" arrivalSpeed="15.78" duration="112.00" routeLength="1528.50" waitingTime="0.00" waitingCount="0" stopTime="0.00" timeLoss="16.53" rerouteNo="0" devices="tripinfo_S_N_141" vType="standard_car" speedFactor="1.16" vaporized=""/>
    <tripinfo id="N_W_86" depart="124.00" departLane="N2TL_0" departPos="5.10" departSpeed="0.00" departDelay="121.00" arrival="249.00" arrivalLane="TL2W_0" arrivalPos="750.00" arrivalSpeed="13.60" duration="125.00" routeLength="1503.93" waitingTime="0.00" waitingCount="0" stopTime="0.00" timeLoss="15.95" rerouteNo="0" devices="tripinfo_N_W_86" vType="standard_car" speedFactor="1.00" vaporized=""/>
    <tripinfo id="N_S_88" depart="128.00" departLane="N2TL_0" departPos="5.10" departSpeed="0.00" departDelay="124.00" arrival="249.00" arrivalLane="TL2S_1" arrivalPos="750.00" arrivalSpeed="13.63" duration="121.00" routeLength="1528.50" waitingTime="0.00" waitingCount="0" stopTime="0.00" timeLoss="10.99" rerouteNo="0" devices="tripinfo_N_S_88" vType="standard_car" speedFactor="1.01" vaporized=""/>
    <tripinfo id="N_S_99" depart="137.00" departLane="N2TL_0" departPos="5.10" departSpeed="0.00" departDelay="132.00" arrival="249.00" arrivalLane="TL2S_0" arrivalPos="750.00" arrivalSpeed="14.75" duration="112.00" routeLength="1528.50" waitingTime="0.00" waitingCount="0" stopTime="0.00" timeLoss="11.06" rerouteNo="0" devices="tripinfo_N_S_99" vType="standard_car" speedFactor="1.10" vaporized=""/>
    <tripinfo id="S_N_137" depart="127.00" departLane="S2TL_0" departPos="5.10" departSpeed="0.00" departDelay="119.00" arrival="250.00" arrivalLane="TL2N_0" arrivalPos="750.00" arrivalSpeed="13.82" duration="123.00" routeLength="1528.50" waitingTime="0.00" waitingCount="0" stopTime="0.00" timeLoss="14.48" rerouteNo="0" devices="tripinfo_S_N_137" vType="standard_car" speedFactor="1.02" vaporized=""/>
    <tripinfo id="N_S_100" depart="141.00" departLane="N2TL_0" departPos="5.10" departSpeed="0.00" departDelay="136.00" arrival="256.00" arrivalLane="TL2S_0" arrivalPos="750.00" arrivalSpeed="14.70" duration="115.00" routeLength="1528.50" waitingTime="0.00" waitingCount="0" stopTime="0.00" timeLoss="11.41" rerouteNo="0" devices="tripinfo_N_S_100" vType="standard_car" speedFactor="1.07" vaporized=""/>
    <tripinfo id="S_N_111" depart="104.00" departLane="S2TL_0" departPos="5.10" departSpeed="0.00" departDelay="98.00" arrival="256.00" arrivalLane="TL2N_0" arrivalPos="750.00" arrivalSpeed="11.81" duration="152.00" routeLength="1528.50" waitingTime="6.00" waitingCount="1" stopTime="0.00" timeLoss="24.12" rerouteNo="0" devices="tripinfo_S_N_111" vType="standard_car" speedFactor="0.87" vaporized=""/>
    <tripinfo id="S_N_127" depart="108.00" departLane="S2TL_0" departPos="5.10" departSpeed="0.00" departDelay="101.00" arrival="261.00" arrivalLane="TL2N_0" arrivalPos="750.00" arrivalSpeed="10.93" duration="153.00" routeLength="1528.50" waitingTime="0.00" waitingCount="0" stopTime="0.00" timeLoss="18.31" rerouteNo="0" devices="tripinfo_S_N_127" vType="standard_car" speedFactor="0.82" vaporized=""/>
    <tripinfo id="S_N_156" depart="161.00" departLane="S2TL_0" departPos="5.10" departSpeed="0.00" departDelay="151.00" arrival="267.00" arrivalLane="TL2N_1" arrivalPos="750.00" arrivalSpeed="16.23" duration="106.00" routeLength="1528.50" waitingTime="0.00" waitingCount="0" stopTime="0.00" timeLoss="12.44" rerouteNo="0" devices="tripinfo_S_N_156" vType="standard_car" speedFactor="1.18" vaporized=""/>
    <tripinfo id="S_N_142" depart="141.00" departLane="S2TL_0" departPos="5.10" departSpeed="0.00" departDelay="132.00" arrival="269.00" arrivalLane="TL2N_0" arrivalPos="750.00" arrivalSpeed="12.63" duration="128.00" routeLength="1528.50" waitingTime="0.00" waitingCount="0" stopTime="0.00" timeLoss="10.38" rerouteNo="0" devices="tripinfo_S_N_142" vType="standard_car" speedFactor="0.94" vaporized=""/>
    <tripinfo id="N_S_116" depart="164.00" departLane="N2TL_0" departPos="5.10" departSpeed="0.00" departDelay="158.00" arrival="270.00" arrivalLane="TL2S_0" arrivalPos="750.00" arrivalSpeed="16.07" duration="106.00" routeLength="1528.50" waitingTime="0.00" waitingCount="0" stopTime="0.00" timeLoss="11.73" rerouteNo="0" devices="tripinfo_N_S_116" vType="standard_car" speedFactor="1.18" vaporized=""/>
    <tripinfo id="N_S_112" depart="159.00" departLane="N2TL_0" departPos="5.10" departSpeed="0.00" departDelay="153.00" arrival="273.00" arrivalLane="TL2S_0" arrivalPos="750.00" arrivalSpeed="14.82" duration="114.00" routeLength="1528.50" waitingTime="0.00" waitingCount="0" stopTime="0.00" timeLoss="13.54" rerouteNo="0" devices="tripinfo_N_S_112" vType="standard_car" speedFactor="1.10" vaporized=""/>
    <tripinfo id="N_S_109" depart="150.00" departLane="N2TL_0" departPos="5.10" departSpeed="0.00" departDelay="145.00" arrival="276.00" arrivalLane="TL2S_0" arrivalPos="750.00" arrivalSpeed="12.97" duration="126.00" routeLength="1528.50" waitingTime="0.00" waitingCount="0" stopTime="0.00" timeLoss="10.74" rerouteNo="0" devices="tripinfo_N_S_109" vType="standard_car" speedFactor="0.96" vaporized=""/>
    <tripinfo id="S_N_150" depart="151.00" departLane="S2TL_0" departPos="5.10" departSpeed="0.00" departDelay="142.00" arrival="276.00" arrivalLane="TL2N_0" arrivalPos="750.00" arrivalSpeed="12.93" duration="125.00" routeLength="1528.50" waitingTime="0.00" waitingCount="0" stopTime="0.00" timeLoss="10.18" rerouteNo="0" devices="tripinfo_S_N_150" vType="standard_car" speedFactor="0.96" vaporized=""/>
    <tripinfo id="S_N_146" depart="146.00" departLane="S2TL_0" departPos="5.10" departSpeed="0.00" departDelay="137.00" arrival="282.00" arrivalLane="TL2N_0" arrivalPos="750.00" arrivalSpeed="12.05" duration="136.00" routeLength="1528.50" waitingTime="0.00" waitingCount="0" stopTime="0.00" timeLoss="10.96" rerouteNo="0" devices="tripinfo_S_N_146" vType="standard_car" speedFactor="0.89" vaporized=""/>
    <tripinfo id="N_S_121" depart="173.00" departLane="N2TL_0" departPos="5.10" departSpeed="0.00" departDelay="167.00" arrival="285.00" arrivalLane="TL2S_0" arrivalPos="750.00" arrivalSpeed="14.86" duration="112.00" routeLength="1528.50" waitingTime="0.00" waitingCount="0" stopTime="0.00" timeLoss="11.94" rerouteNo="0" devices="tripinfo_N_S_121" vType="standard_car" speedFactor="1.10" vaporized=""/>
    <tripinfo id="N_S_117" depart="168.00" departLane="N2TL_0" departPos="5.10" departSpeed="0.00" departDelay="162.00" arrival="288.00" arrivalLane="TL2S_0" arrivalPos="750.00" arrivalSpeed="13.78" duration="120.00" routeLength="1528.50" waitingTime="0.00" waitingCount="0" stopTime="0.00" timeLoss="10.38" rerouteNo="0" devices="tripinfo_N_S_117" vType="standard_car" speedFactor="1.00" vaporized=""/>
    <tripinfo id="S_N_164" depart="175.00" departLane="S2TL_0" departPos="5.10" departSpeed="0.00" departDelay="164.00" arrival="292.00" arrivalLane="TL2N_1" arrivalPos="750.00" arrivalSpeed="14.14" duration="117.00" routeLength="1528.50" waitingTime="0.00" waitingCount="0" stopTime="0.00" timeLoss="12.27" rerouteNo="0" devices="tripinfo_S_N_164" vType="standard_car" speedFactor="1.05" vaporized=""/>
    <tripinfo id="N_S_128" depart="182.00" departLane="N2TL_0" departPos="5.10" departSpeed="0.00" departDelay="175.00" arrival="293.00" arrivalLane="TL2S_0" arrivalPos="750.00" arrivalSpeed="15.42" duration="111.00" routeLength="1528.50" waitingTime="0.00" waitingCount="0" stopTime="0.00" timeLoss="12.18" rerouteNo="0" devices="tripinfo_N_S_128" vType="standard_car" speedFactor="1.12" vaporized=""/>
    <tripinfo id="S_N_162" depart="170.00" departLane="S2TL_0" departPos="5.10" departSpeed="0.00" departDelay="160.00" arrival="293.00" arrivalLane="TL2N_0" arrivalPos="750.00" arrivalSpeed="13.59" duration="123.00" routeLength="1528.50" waitingTime="1.00" waitingCount="1" stopTime="0.00" timeLoss="11.54" rerouteNo="0" devices="tripinfo_S_N_162" vType="standard_car" speedFactor="0.99" vaporized=""/>
    <tripinfo id="N_S_123" depart="178.00" departLane="N2TL_0" departPos="5.10" departSpeed="0.00" departDelay="171.00" arrival="296.00" arrivalLane="TL2S_0" arrivalPos="750.00" arrivalSpeed="14.13" duration="118.00" routeLength="1528.50" waitingTime="0.00" waitingCount="0" stopTime="0.00" timeLoss="10.01" rerouteNo="0" devices="tripinfo_N_S_123" vType="standard_car" speedFactor="1.02" vaporized=""/>
    <tripinfo id="S_N_158" depart="166.00" departLane="S2TL_0" departPos="5.10" departSpeed="0.00" departDelay="156.00" arrival="297.00" arrivalLane="TL2N_0" arrivalPos="750.00" arrivalSpeed="12.31" duration="131.00" routeLength="1528.50" waitingTime="0.00" waitingCount="0" stopTime="0.00" timeLoss="10.01" rerouteNo="0" devices="tripinfo_S_N_158" vType="standard_car" speedFactor="0.91" vaporized=""/>
    <tripinfo id="S_N_167" depart="185.00" departLane="S2TL_0" departPos="5.10" departSpeed="0.00" departDelay="174.00" arrival="303.00" arrivalLane="TL2N_0" arrivalPos="750.00" arrivalSpeed="13.88" duration="118.00" routeLength="1528.50" waitingTime="0.00" waitingCount="0" stopTime="0.00" timeLoss="10.32" rerouteNo="0" devices="tripinfo_S_N_167" vType="standard_car" speedFactor="1.03" vaporized=""/>
    <tripinfo id="S_N_173" depart="195.00" departLane="S2TL_0" departPos="5.10" departSpeed="0.00" departDelay="184.00" arrival="304.00" arrivalLane="TL2N_0" arrivalPos="750.00" arrivalSpeed="15.47" duration="109.00" routeLength="1528.50" waitingTime="0.00" waitingCount="0" stopTime="0.00" timeLoss="12.48" rerouteNo="0" devices="tripinfo_S_N_173" vType="standard_car" speedFactor="1.14" vaporized=""/>
    <tripinfo id="N_S_132" depart="192.00" departLane="N2TL_0" departPos="5.10" departSpeed="0.00" departDelay="184.00" arrival="317.00" arrivalLane="TL2S_0" arrivalPos="750.00" arrivalSpeed="13.12" duration="125.00" routeLength="1528.50" waitingTime="0.00" waitingCount="0" stopTime="0.00" timeLoss="9.97" rerouteNo="0" devices="tripinfo_N_S_132" vType="standard_car" speedFactor="0.96" vaporized=""/>
    <tripinfo id="N_S_138" depart="196.00" departLane="N2TL_0" departPos="5.10" departSpeed="0.00" departDelay="188.00" arrival="318.00" arrivalLane="TL2S_1" arrivalPos="750.00" arrivalSpeed="13.90" duration="122.00" routeLength="1528.50" waitingTime="0.00" waitingCount="0" stopTime="0.00" timeLoss="11.74" rerouteNo="0" devices="tripinfo_N_S_138" vType="standard_car" speedFactor="1.00" vaporized=""/>
    <tripinfo id="N_S_147" depart="201.00" departLane="N2TL_0" departPos="5.10" departSpeed="0.00" departDelay="192.00" arrival="322.00" arrivalLane="TL2S_0" arrivalPos="750.00" arrivalSpeed="13.92" duration="121.00" routeLength="1528.50" waitingTime="0.00" waitingCount="0" stopTime="0.00" timeLoss="10.65" rerouteNo="0" devices="tripinfo_N_S_147" vType="standard_car" speedFactor="1.00" vaporized=""/>