<?xml version="1.0" encoding="UTF-8"?>

<!-- generated on Wed Feb 27 11:02:05 2019 by Eclipse SUMO Version 1.1.0
<configuration xmlns:xsi="http://www.w3.org/2001/XMLSchema-instance" xsi:noNamespaceSchemaLocation="http://sumo.dlr.de/xsd/sumoConfiguration.xsd">

    <input>
        <net-file value="environment/tlcs.net.xml"/>
        <route-files value="environment/tlcs_test.rou.xml"/>
    </input>

    <output>
        <tripinfo-output value="environment/tripinfo.xml"/>
    </output>

    <time>
        <begin value="0"/>
    </time>

    <processing>
        <time-to-teleport value="-1"/>
    </processing>

    <report>
        <no-step-log value="true"/>
    </report>

    <traci_server>
        <remote-port value="42411"/>
    </traci_server>

</configuration>
-->

<tripinfos xmlns:xsi="http://www.w3.org/2001/XMLSchema-instance" xsi:noNamespaceSchemaLocation="http://sumo.dlr.de/xsd/tripinfo_file.xsd">
    <tripinfo id="S_N_19" depart="4.00" departLane="S2TL_0" departPos="5.10" departSpeed="0.00" departDelay="4.00" arrival="112.00" arrivalLane="TL2N_0" arrivalPos="750.00" arrivalSpeed="15.60" duration="108.00" routeLength="1528.50" waitingTime="1.00" waitingCount="1" stopTime="0.00" timeLoss="12.95" rerouteNo="0" devices="tripinfo_S_N_19" vType="standard_car" speedFactor="1.16" vaporized=""/>
    <tripinfo id="N_W_0" depart="0.00" departLane="N2TL_0" departPos="5.10" departSpeed="0.00" departDelay="0.00" arrival="117.00" arrivalLane="TL2W_0" arrivalPos="750.00" arrivalSpeed="14.25" duration="117.00" routeLength="1503.93" waitingTime="0.00" waitingCount="0" stopTime="0.00" timeLoss="13.46" rerouteNo="0" devices="tripinfo_N_W_0" vType="standard_car" speedFactor="1.06" vaporized=""/>
    <tripinfo id="S_N_35" depart="10.00" departLane="S2TL_0" departPos="5.10" departSpeed="0.00" departDelay="9.00" arrival="129.00" arrivalLane="TL2N_1" arrivalPos="750.00" arrivalSpeed="13.87" duration="119.00" routeLength="1528.50" waitingTime="0.00" waitingCount="0" stopTime="0.00" timeLoss="11.03" rerouteNo="0" devices="tripinfo_S_N_35" vType="standard_car" speedFactor="1.02" vaporized=""/>
    <tripinfo id="S_N_15" depart="0.00" departLane="S2TL_0" departPos="5.10" departSpeed="0.00" departDelay="0.00" arrival="130.00" arrivalLane="TL2N_0" arrivalPos="750.00" arrivalSpeed="12.80" duration="130.00" routeLength="1528.50" waitingTime="0.00" waitingCount="0" stopTime="0.00" timeLoss="10.40" rerouteNo="0" devices="tripinfo_S_N_15" vType="standard_car" speedFactor="0.93" vaporized=""/>
    <tripinfo id="S_N_40" depart="14.00" departLane="S2TL_0" departPos="5.10" departSpeed="0.00" departDelay="13.00" arrival="133.00" arrivalLane="TL2N_0" arrivalPos="750.00" arrivalSpeed="13.85" duration="119.00" routeLength="1528.50" waitingTime="1.00" waitingCount="1" stopTime="0.00" timeLoss="11.66" rerouteNo="0" devices="tripinfo_S_N_40" vType="standard_car" speedFactor="1.03" vaporized=""/>
    <tripinfo id="S_N_44" depart="20.00" departLane="S2TL_0" departPos="5.10" departSpeed="0.00" departDelay="19.00" arrival="137.00" arrivalLane="TL2N_0" arrivalPos="750.00" arrivalSpeed="14.05" duration="117.00" routeLength="1528.50" waitingTime="0.00" waitingCount="0" stopTime="0.00" timeLoss="11.44" rerouteNo="0" devices="tripinfo_S_N_44" vType="standard_car" speedFactor="1.04" vaporized=""/>
    <tripinfo id="N_S_22" depart="18.00" departLane="N2TL_0" departPos="5.10" departSpeed="0.00" departDelay="18.00" arrival="142.00" arrivalLane="TL2S_0" arrivalPos="750.00" arrivalSpeed="13.19" duration="124.00" routeLength="1528.50" waitingTime="0.00" waitingCount="0" stopTime="0.00" timeLoss="10.31" rerouteNo="0" devices="tripinfo_N_S_22" vType="standard_car" speedFactor="0.98" vaporized=""/>
    <tripinfo id="S_N_46" depart="25.00" departLane="S2TL_0" departPos="5.10" departSpeed="0.00" departDelay="24.00" arrival="146.00" arrivalLane="TL2N_0" arrivalPos="750.00" arrivalSpeed="13.57" duration="121.00" routeLength="1528.50" waitingTime="0.00" waitingCount="0" stopTime="0.00" timeLoss="10.46" rerouteNo="0" devices="tripinfo_S_N_46" vType="standard_car" speedFactor="1.00" vaporized=""/>
    <tripinfo id="S_N_61" depart="44.00" departLane="S2TL_0" departPos="5.10" departSpeed="0.00" departDelay="42.00" arrival="154.00" arrivalLane="TL2N_0" arrivalPos="750.00" arrivalSpeed="15.23" duration="110.00" routeLength="1528.50" waitingTime="0.00" waitingCount="0" stopTime="0.00" timeLoss="11.64" rerouteNo="0" devices="tripinfo_S_N_61" vType="standard_car" speedFactor="1.12" vaporized=""/>
    <tripinfo id="N_S_32" depart="40.00" departLane="N2TL_0" departPos="5.10" departSpeed="0.00" departDelay="39.00" arrival="160.00" arrivalLane="TL2S_0" arrivalPos="750.00" arrivalSpeed="13.88" duration="120.00" routeLength="1528.50" waitingTime="0.00" waitingCount="0" stopTime="0.00" timeLoss="10.21" rerouteNo="0" devices="tripinfo_N_S_32" vType="standard_car" speedFactor="1.01" vaporized=""/>
    <tripinfo id="N_S_37" depart="53.00" departLane="N2TL_0" departPos="5.10" departSpeed="0.00" departDelay="52.00" arrival="162.00" arrivalLane="TL2S_2" arrivalPos="750.00" arrivalSpeed="16.19" duration="109.00" routeLength="1528.50" waitingTime="0.00" waitingCount="0" stopTime="0.00" timeLoss="14.95" rerouteNo="0" devices="tripinfo_N_S_37" vType="standard_car" speedFactor="1.18" vaporized=""/>
    <tripinfo id="N_S_25" depart="27.00" departLane="N2TL_0" departPos="5.10" departSpeed="0.00" departDelay="27.00" arrival="164.00" arrivalLane="TL2S_0" arrivalPos="750.00" arrivalSpeed="11.74" duration="137.00" routeLength="1528.50" waitingTime="0.00" waitingCount="0" stopTime="0.00" timeLoss="10.19" rerouteNo="0" devices="tripinfo_N_S_25" vType="standard_car" speedFactor="0.87" vaporized=""/>
    <tripinfo id="S_N_47" depart="30.00" departLane="S2TL_0" departPos="5.10" departSpeed="0.00" departDelay="29.00" arrival="164.00" arrivalLane="TL2N_0" arrivalPos="750.00" arrivalSpeed="12.27" duration="134.00" routeLength="1528.50" waitingTime="0.00" waitingCount="0" stopTime="0.00" timeLoss="10.93" rerouteNo="0" devices="tripinfo_S_N_47" vType="standard_car" speedFactor="0.90" vaporized=""/>
    <tripinfo id="N_S_29" depart="36.00" departLane="N2TL_0" departPos="5.10" departSpeed="0.00" departDelay="36.00" arrival="165.00" arrivalLane="TL2S_1" arrivalPos="750.00" arrivalSpeed="12.51" duration="129.00" routeLength="1528.50" waitingTime="0.00" waitingCount="0" stopTime="0.00" timeLoss="10.14" rerouteNo="0" devices="tripinfo_N_S_29" vType="standard_car" speedFactor="0.93" vaporized=""/>
    <tripinfo id="N_S_24" depart="22.00" departLane="N2TL_0" departPos="5.10" departSpeed="0.00" departDelay="22.00" arrival="166.00" arrivalLane="TL2S_0" arrivalPos="750.00" arrivalSpeed="11.26" duration="144.00" routeLength="1528.50" waitingTime="0.00" waitingCount="0" stopTime="0.00" timeLoss="10.49" rerouteNo="0" devices="tripinfo_N_S_24" vType="standard_car" speedFactor="0.83" vaporized=""/>
    <tripinfo id="N_S_26" depart="31.00" departLane="N2TL_0" departPos="5.10" departSpeed="0.00" departDelay="31.00" arrival="167.00" arrivalLane="TL2S_1" arrivalPos="750.00" arrivalSpeed="12.49" duration="136.00" routeLength="1528.50" waitingTime="0.00" waitingCount="0" stopTime="0.00" timeLoss="15.11" rerouteNo="0" devices="tripinfo_N_S_26" vType="standard_car" speedFactor="0.92" vaporized=""/>
    <tripinfo id="N_S_38" depart="58.00" departLane="N2TL_0" departPos="5.10" departSpeed="0.00" departDelay="57.00" arrival="170.00" arrivalLane="TL2S_1" arrivalPos="750.00" arrivalSpeed="15.13" duration="112.00" routeLength="1528.50" waitingTime="0.00" waitingCount="0" stopTime="0.00" timeLoss="12.07" rerouteNo="0" devices="tripinfo_N_S_38" vType="standard_car" speedFactor="1.10" vaporized=""/>
    <tripinfo id="N_S_34" depart="49.00" departLane="N2TL_0" departPos="5.10" departSpeed="0.00" departDelay="48.00" arrival="170.00" arrivalLane="TL2S_0" arrivalPos="750.00" arrivalSpeed="13.38" duration="121.00" routeLength="1528.50" waitingTime="0.00" waitingCount="0" stopTime="0.00" timeLoss="10.27" rerouteNo="0" devices="tripinfo_N_S_34" vType="standard_car" speedFactor="0.99" vaporized=""/>
    <tripinfo id="S_N_48" depart="35.00" departLane="S2TL_0" departPos="5.10" departSpeed="0.00" departDelay="34.00" arrival="171.00" arrivalLane="TL2N_0" arrivalPos="750.00" arrivalSpeed="12.16" duration="136.00" routeLength="1528.50" waitingTime="0.00" waitingCount="0" stopTime="0.00" timeLoss="10.21" rerouteNo="0" devices="tripinfo_S_N_48" vType="standard_car" speedFactor="0.88" vaporized=""/>
    <tripinfo id="S_N_56" depart="39.00" departLane="S2TL_0" departPos="5.10" departSpeed="0.00" departDelay="38.00" arrival="173.00" arrivalLane="TL2N_1" arrivalPos="750.00" arrivalSpeed="12.22" duration="134.00" routeLength="1528.50" waitingTime="0.00" waitingCount="0" stopTime="0.00" timeLoss="10.81" rerouteNo="0" devices="tripinfo_S_N_56" vType="standard_car" speedFactor="0.90" vaporized=""/>
    <tripinfo id="N_S_42" depart="63.00" departLane="N2TL_0" departPos="5.10" departSpeed="0.00" departDelay="62.00" arrival="176.00" arrivalLane="TL2S_0" arrivalPos="750.00" arrivalSpeed="14.67" duration="113.00" routeLength="1528.50" waitingTime="0.00" waitingCount="0" stopTime="0.00" timeLoss="12.04" rerouteNo="0" devices="tripinfo_N_S_42" vType="standard_car" speedFactor="1.09" vaporized=""/>
    <tripinfo id="S_N_74" depart="53.00" departLane="S2TL_0" departPos="5.10" departSpeed="0.00" departDelay="51.00" arrival="180.00" arrivalLane="TL2N_0" arrivalPos="750.00" arrivalSpeed="12.88" duration="127.00" routeLength="1528.50" waitingTime="0.00" waitingCount="0" stopTime="0.00" timeLoss="11.16" rerouteNo="0" devices="tripinfo_S_N_74" vType="standard_car" speedFactor="0.96" vaporized=""/>
    <tripinfo id="S_N_75" depart="57.00" departLane="S2TL_0" departPos="5.10" departSpeed="0.00" departDelay="55.00" arrival="181.00" arrivalLane="TL2N_1" arrivalPos="750.00" arrivalSpeed="13.39" duration="124.00" routeLength="1528.50" waitingTime="0.00" waitingCount="0" stopTime="0.00" timeLoss="11.36" rerouteNo="0" devices="tripinfo_S_N_75" vType="standard_car" speedFactor="0.98" vaporized=""/>
    <tripinfo id="S_N_65" depart="48.00" departLane="S2TL_0" departPos="5.10" departSpeed="0.00" departDelay="46.00" arrival="184.00" arrivalLane="TL2N_0" arrivalPos="750.00" arrivalSpeed="11.98" duration="136.00" routeLength="1528.50" waitingTime="0.00" waitingCount="0" stopTime="0.00" timeLoss="10.83" rerouteNo="0" devices="tripinfo_S_N_65" vType="standard_car" speedFactor="0.88" vaporized=""/>
    <tripinfo id="S_N_77" depart="62.00" departLane="S2TL_0" departPos="5.10" departSpeed="0.00" departDelay="59.00" arrival="185.00" arrivalLane="TL2N_1" arrivalPos="750.00" arrivalSpeed="13.62" duration="123.00" routeLength="1528.50" waitingTime="0.00" waitingCount="0" stopTime="0.00" timeLoss="10.78" rerouteNo="0" devices="tripinfo_S_N_77" vType="standard_car" speedFactor="0.98" vaporized=""/>
    <tripinfo id="N_S_51" depart="78.00" departLane="N2TL_0" departPos="5.10" departSpeed="0.00" departDelay="77.00" arrival="185.00" arrivalLane="TL2S_1" arrivalPos="750.00" arrivalSpeed="15.85" duration="107.00" routeLength="1528.50" waitingTime="0.00" waitingCount="0" stopTime="0.00" timeLoss="12.02" rerouteNo="0" devices="tripinfo_N_S_51" vType="standard_car" speedFactor="1.17" vaporized=""/>
    <tripinfo id="N_S_43" depart="67.00" departLane="N2TL_0" departPos="5.10" departSpeed="0.00" departDelay="66.00" arrival="185.00" arrivalLane="TL2S_0" arrivalPos="750.00" arrivalSpeed="14.29" duration="118.00" routeLength="1528.50" waitingTime="0.00" waitingCount="0" stopTime="0.00" timeLoss="11.87" rerouteNo="0" devices="tripinfo_N_S_43" vType="standard_car" speedFactor="1.04" vaporized=""/>
    <tripinfo id="S_N_81" depart="67.00" departLane="S2TL_0" departPos="5.10" departSpeed="0.00" departDelay="64.00" arrival="188.00" arrivalLane="TL2N_0" arrivalPos="750.00" arrivalSpeed="13.60" duration="121.00" routeLength="1528.50" waitingTime="0.00" waitingCount="0" stopTime="0.00" timeLoss="10.28" rerouteNo="0" devices="tripinfo_S_N_81" vType="standard_car" speedFactor="1.00" vaporized=""/>
    <tripinfo id="S_N_82" depart="71.00" departLane="S2TL_0" departPos="5.10" departSpeed="0.00" departDelay="68.00" arrival="190.00" arrivalLane="TL2N_0" arrivalPos="750.00" arrivalSpeed="13.69" duration="119.00" routeLength="1528.50" waitingTime="0.00" waitingCount="0" stopTime="0.00" timeLoss="10.56" rerouteNo="0" devices="tripinfo_S_N_82" vType="standard_car" speedFactor="1.02" vaporized=""/>
    <tripinfo id="N_S_53" depart="83.00" departLane="N2TL_0" departPos="5.10" departSpeed="0.00" departDelay="82.00" arrival="196.00" arrivalLane="TL2S_0" arrivalPos="750.00" arrivalSpeed="14.87" duration="113.00" routeLength="1528.50" waitingTime="0.00" waitingCount="0" stopTime="0.00" timeLoss="11.84" rerouteNo="0" devices="tripinfo_N_S_53" vType="standard_car" speedFactor="1.10" vaporized=""/>
    <tripinfo id="S_N_89" depart="80.00" departLane="S2TL_0" departPos="5.10" departSpeed="0.00" departDelay="76.00" arrival="199.00" arrivalLane="TL2N_0" arrivalPos="750.00" arrivalSpeed="13.81" duration="119.00" routeLength="1528.50" waitingTime="0.00" waitingCount="0" stopTime="0.00" timeLoss="10.37" rerouteNo="0" devices="tripinfo_S_N_89" vType="standard_car" speedFactor="1.02" vaporized=""/>
    <tripinfo id="S_N_98" depart="95.00" departLane="S2TL_0" departPos="5.10" departSpeed="0.00" departDelay="91.00" arrival="205.00" arrivalLane="TL2N_1" arrivalPos="750.00" arrivalSpeed="15.19" duration="110.00" routeLength="1528.50" waitingTime="0.00" waitingCount="0" stopTime="0.00" timeLoss="11.00" rerouteNo="0" devices="tripinfo_S_N_98" vType="standard_car" speedFactor="1.12" vaporized=""/>
    <tripinfo id="S_N_95" depart="90.00" departLane="S2TL_0" departPos="5.10" departSpeed="0.00" departDelay="86.00" arrival="205.00" arrivalLane="TL2N_0" arrivalPos="750.00" arrivalSpeed="14.47" duration="115.00" routeLength="1528.50" waitingTime="0.00" waitingCount="0" stopTime="0.00" timeLoss="10.72" rerouteNo="0" devices="tripinfo_S_N_95" vType="standard_car" speedFactor="1.06" vaporized=""/>
    <tripinfo id="N_S_62" depart="88.00" departLane="N2TL_0" departPos="5.10" departSpeed="0.00" departDelay="86.00" arrival="208.00" arrivalLane="TL2S_0" arrivalPos="750.00" arrivalSpeed="14.09" duration="120.00" routeLength="1528.50" waitingTime="0.00" waitingCount="0" stopTime="0.00" timeLoss="10.96" rerouteNo="0" devices="tripinfo_N_S_62" vType="standard_car" speedFactor="1.02" vaporized=""/>
    <tripinfo id="N_S_68" depart="92.00" departLane="N2TL_0" departPos="5.10" departSpeed="0.00" departDelay="90.00" arrival="210.00" arrivalLane="TL2S_1" arrivalPos="750.00" arrivalSpeed="14.02" duration="118.00" routeLength="1528.50" waitingTime="1.00" waitingCount="1" stopTime="0.00" timeLoss="11.59" rerouteNo="0" devices="tripinfo_N_S_68" vType="standard_car" speedFactor="1.04" vaporized=""/>
    <tripinfo id="N_S_50" depart="72.00" departLane="N2TL_0" departPos="5.10" departSpeed="0.00" departDelay="71.00" arrival="212.00" arrivalLane="TL2S_0" arrivalPos="750.00" arrivalSpeed="11.72" duration="140.00" routeLength="1528.50" waitingTime="0.00" waitingCount="0" stopTime="0.00" timeLoss="11.24" rerouteNo="0" devices="tripinfo_N_S_50" vType="standard_car" speedFactor="0.85" vaporized=""/>
    <tripinfo id="S_N_93" depart="84.00" departLane="S2TL_0" departPos="5.10" departSpeed="0.00" departDelay="80.00" arrival="216.00" arrivalLane="TL2N_0" arrivalPos="750.00" arrivalSpeed="12.44" duration="132.00" routeLength="1528.50" waitingTime="1.00" waitingCount="1" stopTime="0.00" timeLoss="11.71" rerouteNo="0" devices="tripinfo_S_N_93" vType="standard_car" speedFactor="0.92" vaporized=""/>
    <tripinfo id="N_W_69" depart="97.00" departLane="N2TL_0" departPos="5.10" departSpeed="0.00" departDelay="95.00" arrival="218.00" arrivalLane="TL2W_0" arrivalPos="750.00" arrivalSpeed="13.89" duration="121.00" routeLength="1503.93" waitingTime="0.00" waitingCount="0" stopTime="0.00" timeLoss="13.86" rerouteNo="0" devices="tripinfo_N_W_69" vType="standard_car" speedFactor="1.02" vaporized=""/>
    <tripinfo id="S_N_106" depart="99.00" departLane="S2TL_0" departPos="5.10" departSpeed="0.00" departDelay="94.00" arrival="219.00" arrivalLane="TL2N_0" arrivalPos="750.00" arrivalSpeed="14.02" duration="120.00" routeLength="1528.50" waitingTime="0.00" waitingCount="0" stopTime="0.00" timeLoss="11.02" rerouteNo="0" devices="tripinfo_S_N_106" vType="standard_car" speedFactor="1.01" vaporized=""/>
    <tripinfo id="S_N_134" depart="122.00" departLane="S2TL_0" departPos="5.10" departSpeed="0.00" departDelay="114.00" arrival="227.00" arrivalLane="TL2N_1" arrivalPos="750.00" arrivalSpeed="16.53" duration="105.00" routeLength="1528.50" waitingTime="0.00" waitingCount="0" stopTime="0.00" timeLoss="14.62" rerouteNo="0" devices="tripinfo_S_N_134" vType="standard_car" speedFactor="1.23" vaporized=""/>
    <tripinfo id="N_S_84" depart="120.00" departLane="N2TL_0" departPos="5.10" departSpeed="0.00" departDelay="117.00" arrival="229.00" arrivalLane="TL2S_2" arrivalPos="750.00" arrivalSpeed="15.59" duration="109.00" routeLength="1528.50" waitingTime="0.00" waitingCount="0" stopTime="0.00" timeLoss="12.84" rerouteNo="0" devices="tripinfo_N_S_84" vType="standard_car" speedFactor="1.15" vaporized=""/>
    <tripinfo id="N_S_79" depart="115.00" departLane="N2TL_0" departPos="5.10" departSpeed="0.00" departDelay="112.00" arrival="229.00" arrivalLane="TL2S_0" arrivalPos="750.00" arrivalSpeed="14.88" duration="114.00" routeLength="1528.50" waitingTime="0.00" waitingCount="0" stopTime="0.00" timeLoss="12.14" rerouteNo="0" devices="tripinfo_N_S_79" vType="standard_car" speedFactor="1.09" vaporized=""/>
    <tripinfo id="N_S_78" depart="110.00" departLane="N2TL_0" departPos="5.10" departSpeed="0.00" departDelay="107.00" arrival="231.00" arrivalLane="TL2S_0" arrivalPos="750.00" arrivalSpeed="13.91" duration="121.00" routeLength="1528.50" waitingTime="0.00" waitingCount="0" stopTime="0.00" timeLoss="11.56" rerouteNo="0" devices="tripinfo_N_S_78" vType="standard_car" speedFactor="1.01" vaporized=""/>
    <tripinfo id="S_N_129" depart="112.00" departLane="S2TL_0" departPos="5.10" departSpeed="0.00" departDelay="104.00" arrival="235.00" arrivalLane="TL2N_0" arrivalPos="750.00" arrivalSpeed="13.96" duration="123.00" routeLength="1528.50" waitingTime="0.00" waitingCount="0" stopTime="0.00" timeLoss="13.11" rerouteNo="0" devices="tripinfo_S_N_129" vType="standard_car" speedFactor="1.01" vaporized=""/>
    <tripinfo id="S_N_111" depart="104.00" departLane="S2TL_0" departPos="5.10" departSpeed="0.00" departDelay="98.00" arrival="241.00" arrivalLane="TL2N_0" arrivalPos="750.00" arrivalSpeed="11.96" duration="137.00" routeLength="1528.50" waitingTime="0.00" waitingCount="0" stopTime="0.00" timeLoss="9.55" rerouteNo="0" devices="tripinfo_S_N_111" vType="standard_car" speedFactor="0.87" vaporized=""/>
    <tripinfo id="S_N_140" depart="131.00" departLane="S2TL_0" departPos="5.10" departSpeed="0.00" departDelay="122.00" arrival="242.00" arrivalLane="TL2N_1" arrivalPos="750.00" arrivalSpeed="15.41" duration="111.00" routeLength="1528.50" waitingTime="0.00" waitingCount="0" stopTime="0.00" timeLoss="11.42" rerouteNo="0" devices="tripinfo_S_N_140" vType="standard_car" speedFactor="1.11" vaporized=""/>
    <tripinfo id="S_N_141" depart="136.00" departLane="S2TL_0" departPos="5.10" departSpeed="0.00" departDelay="127.00" arrival="243.00" arrivalLane="TL2N_1" arrivalPos="750.00" arrivalSpeed="16.06" duration="107.00" routeLength="1528.50" waitingTime="0.00" waitingCount="0" stopTime="0.00" timeLoss="12.25" rerouteNo="0" devices="tripinfo_S_N_141" vType="standard_car" speedFactor="1.16" vaporized=""/>
    <tripinfo id="N_W_86" depart="124.00" departLane="N2TL_0" departPos="5.10" departSpeed="0.00" departDelay="121.00" arrival="246.00" arrivalLane="TL2W_0" arrivalPos="750.00" arrivalSpeed="13.52" duration="122.00" routeLength="1503.93" waitingTime="0.00" waitingCount="0" stopTime="0.00" timeLoss="13.23" rerouteNo="0" devices="tripinfo_N_W_86" vType="standard_car" speedFactor="1.00" vaporized=""/>
    <tripinfo id="S_N_137" depart="127.00" departLane="S2TL_0" departPos="5.10" departSpeed="0.00" departDelay="119.00" arrival="247.00" arrivalLane="TL2N_0" arrivalPos="750.00" arrivalSpeed="13.91" duration="120.00" routeLength="1528.50" waitingTime="0.00" waitingCount="0" stopTime="0.00" timeLoss="11.48" rerouteNo="0" devices="tripinfo_S_N_137" vType="standard_car" speedFactor="1.02" vaporized=""/>
    <tripinfo id="N_S_99" depart="137.00" departLane="N2TL_0" departPos="5.10" departSpeed="0.00" departDelay="132.00" arrival="248.00" arrivalLane="TL2S_1" arrivalPos="750.00" arrivalSpeed="14.86" duration="111.00" routeLength="1528.50" waitingTime="0.00" waitingCount="0" stopTime="0.00" timeLoss="10.67" rerouteNo="0" devices="tripinfo_N_S_99" vType="standard_car" speedFactor="1.10" vaporized=""/>
    <tripinfo id="N_S_88" depart="128.00" departLane="N2TL_0" departPos="5.10" departSpeed="0.00" departDelay="124.00" arrival="248.00" arrivalLane="TL2S_0" arrivalPos="750.00" arrivalSpeed="13.96" duration="120.00" routeLength="1528.50" waitingTime="0.00" waitingCount="0" stopTime="0.00" timeLoss="10.46" rerouteNo="0" devices="tripinfo_N_S_88" vType="standard_car" speedFactor="1.01" vaporized=""/>
    <tripinfo id="S_N_127" depart="108.00" departLane="S2TL_0" departPos="5.10" departSpeed="0.00" departDelay="101.00" arrival="252.00" arrivalLane="TL2N_0" arrivalPos="750.00" arrivalSpeed="10.99" duration="144.00" routeLength="1528.50" waitingTime="0.00" waitingCount="0" stopTime="0.00" timeLoss="9.62" rerouteNo="0" devices="tripinfo_S_N_127" vType="standard_car" speedFactor="0.82" vaporized=""/>
    <tripinfo id="N_S_100" depart="141.00" departLane="N2TL_0" departPos="5.10" departSpeed="0.00" departDelay="136.00" arrival="256.00" arrivalLane="TL2S_0" arrivalPos="750.00" arrivalSpeed="14.30" duration="115.00" routeLength="1528.50" waitingTime="0.00" waitingCount="0" stopTime="0.00" timeLoss="11.38" rerouteNo="0" devices="tripinfo_N_S_100" vType="standard_car" speedFactor="1.07" vaporized=""/>
    <tripinfo id="S_N_156" depart="160.00" departLane="S2TL_0" departPos="5.10" departSpeed="0.00" departDelay="150.00" arrival="267.00" arrivalLane="TL2N_1" arrivalPos="750.00" arrivalSpeed="15.93" duration="107.00" routeLength="1528.50" waitingTime="0.00" waitingCount="0" stopTime="0.00" timeLoss="13.61" rerouteNo="0" devices="tripinfo_S_N_156" vType="standard_car" speedFactor="1.18" vaporized=""/>
    <tripinfo id="S_N_142" depart="141.00" departLane="S2TL_0" departPos="5.10" departSpeed="0.00" departDelay="132.00" arrival="270.00" arrivalLane="TL2N_0" arrivalPos="750.00" arrivalSpeed="12.76" duration="129.00" routeLength="1528.50" waitingTime="0.00" waitingCount="0" stopTime="0.00" timeLoss="10.84" rerouteNo="0" devices="tripinfo_S_N_142" vType="standard_car" speedFactor="0.94" vaporized=""/>
    <tripinfo id="N_S_116" depart="165.00" departLane="N2TL_0" departPos="5.10" departSpeed="0.00" departDelay="159.00" arrival="271.00" arrivalLane="TL2S_0" arrivalPos="750.00" arrivalSpeed="16.33" duration="106.00" routeLength="1528.50" waitingTime="0.00" waitingCount="0" stopTime="0.00" timeLoss="11.93" rerouteNo="0" devices="tripinfo_N_S_116" vType="standard_car" speedFactor="1.18" vaporized=""/>
    <tripinfo id="N_S_112" depart="160.00" departLane="N2TL_0" departPos="5.10" departSpeed="0.00" departDelay="154.00" arrival="274.00" arrivalLane="TL2S_0" arrivalPos="750.00" arrivalSpeed="14.88" duration="114.00" routeLength="1528.50" waitingTime="0.00" waitingCount="0" stopTime="0.00" timeLoss="13.79" rerouteNo="0" devices="tripinfo_N_S_112" vType="standard_car" speedFactor="1.10" vaporized=""/>
    <tripinfo id="S_N_150" depart="150.00" departLane="S2TL_0" departPos="5.10" departSpeed="0.00" departDelay="141.00" arrival="276.00" arrivalLane="TL2N_0" arrivalPos="750.00" arrivalSpeed="13.01" duration="126.00" routeLength="1528.50" waitingTime="0.00" waitingCount="0" stopTime="0.00" timeLoss="11.27" rerouteNo="0" devices="tripinfo_S_N_150" vType="standard_car" speedFactor="0.96" vaporized=""/>
    <tripinfo id="N_S_109" depart="150.00" departLane="N2TL_0" departPos="5.10" departSpeed="0.00" departDelay="145.00" arrival="277.00" arrivalLane="TL2S_0" arrivalPos="750.00" arrivalSpeed="13.22" duration="127.00" routeLength="1528.50" waitingTime="0.00" waitingCount="0" stopTime="0.00" timeLoss="11.38" rerouteNo="0" devices="tripinfo_N_S_109" vType="standard_car" speedFactor="0.96" vaporized=""/>
    <tripinfo id="S_N_146" depart="146.00" departLane="S2TL_0" departPos="5.10" departSpeed="0.00" departDelay="137.00" arrival="281.00" arrivalLane="TL2N_0" arrivalPos="750.00" arrivalSpeed="11.96" duration="135.00" routeLength="1528.50" waitingTime="0.00" waitingCount="0" stopTime="0.00" timeLoss="10.72" rerouteNo="0" devices="tripinfo_S_N_146" vType="standard_car" speedFactor="0.89" vaporized=""/>
    <tripinfo id="N_S_121" depart="174.00" departLane="N2TL_0" departPos="5.10" departSpeed="0.00" departDelay="168.00" arrival="287.00" arrivalLane="TL2S_0" arrivalPos="750.00" arrivalSpeed="14.97" duration="113.00" routeLength="1528.50" waitingTime="0.00" waitingCount="0" stopTime="0.00" timeLoss="12.88" rerouteNo="0" devices="tripinfo_N_S_121" vType="standard_car" speedFactor="1.10" vaporized=""/>
    <tripinfo id="S_N_164" depart="174.00" departLane="S2TL_0" departPos="5.10" departSpeed="0.00" departDelay="163.00" arrival="290.00" arrivalLane="TL2N_1" arrivalPos="750.00" arrivalSpeed="14.51" duration="116.00" routeLength="1528.50" waitingTime="0.00" waitingCount="0" stopTime="0.00" timeLoss="11.36" rerouteNo="0" devices="tripinfo_S_N_164" vType="standard_car" speedFactor="1.05" vaporized=""/>
    <tripinfo id="N_S_117" depart="169.00" departLane="N2TL_0" departPos="5.10" departSpeed="0.00" departDelay="163.00" arrival="290.00" arrivalLane="TL2S_0" arrivalPos="750.00" arrivalSpeed="13.75" duration="121.00" routeLength="1528.50" waitingTime="1.00" waitingCount="1" stopTime="0.00" timeLoss="11.10" rerouteNo="0" devices="tripinfo_N_S_117" vType="standard_car" speedFactor="1.00" vaporized=""/>
    <tripinfo id="S_N_162" depart="169.00" departLane="S2TL_0" departPos="5.10" departSpeed="0.00" departDelay="159.00" arrival="291.00" arrivalLane="TL2N_0" arrivalPos="750.00" arrivalSpeed="13.37" duration="122.00" routeLength="1528.50" waitingTime="0.00" waitingCount="0" stopTime="0.00" timeLoss="10.89" rerouteNo="0" devices="tripinfo_S_N_162" vType="standard_car" speedFactor="0.99" vaporized=""/>
    <tripinfo id="N_S_128" depart="184.00" departLane="N2TL_0" departPos="5.10" departSpeed="0.00" departDelay="177.00" arrival="294.00" arrivalLane="TL2S_0" arrivalPos="750.00" arrivalSpeed="15.43" duration="110.00" routeLength="1528.50" waitingTime="0.00" waitingCount="0" stopTime="0.00" timeLoss="11.48" rerouteNo="0" devices="tripinfo_N_S_128" vType="standard_car" speedFactor="1.12" vaporized=""/>
    <tripinfo id="S_N_158" depart="164.00" departLane="S2TL_0" departPos="5.10" departSpeed="0.00" departDelay="154.00" arrival="296.00" arrivalLane="TL2N_0" arrivalPos="750.00" arrivalSpeed="12.40" duration="132.00" routeLength="1528.50" waitingTime="0.00" waitingCount="0" stopTime="0.00" timeLoss="10.77" rerouteNo="0" devices="tripinfo_S_N_158" vType="standard_car" speedFactor="0.91" vaporized=""/>
    <tripinfo id="N_S_123" depart="179.00" departLane="N2TL_0" departPos="5.10" departSpeed="0.00" departDelay="172.00" arrival="298.00" arrivalLane="TL2S_0" arrivalPos="750.00" arrivalSpeed="13.76" duration="119.00" routeLength="1528.50" waitingTime="0.00" waitingCount="0" stopTime="0.00" timeLoss="11.14" rerouteNo="0" devices="tripinfo_N_S_123" vType="standard_car" speedFactor="1.02" vaporized=""/>
    <tripinfo id="S_N_173" depart="192.00" departLane="S2TL_0" departPos="5.10" departSpeed="0.00" departDelay="181.00" arrival="301.00" arrivalLane="TL2N_1" arrivalPos="750.00" arrivalSpeed="15.58" duration="109.00" routeLength="1528.50" waitingTime="0.00" waitingCount="0" stopTime="0.00" timeLoss="12.55" rerouteNo="0" devices="tripinfo_S_N_173" vType="standard_car" speedFactor="1.14" vaporized=""/>
    <tripinfo id="S_N_167" depart="183.00" departLane="S2TL_0" departPos="5.10" departSpeed="0.00" departDelay="172.00" arrival="301.00" arrivalLane="TL2N_0" arrivalPos="750.00" arrivalSpeed="13.93" duration="118.00" routeLength="1528.50" waitingTime="0.00" waitingCount="0" stopTime="0.00" timeLoss="10.25" rerouteNo="0" devices="tripinfo_S_N_167" vType="standard_car" speedFactor="1.03" vaporized=""/>
    <tripinfo id="N_S_138" depart="197.00" departLane="N2TL_0" departPos="5.10" departSpeed="0.00" departDelay="189.00" arrival="318.00" arrivalLane="TL2S_1" arrivalPos="750.00" arrivalSpeed="13.76" duration="121.00" routeLength="1528.50" waitingTime="0.00" waitingCount="0" stopTime="0.00" timeLoss="10.73" rerouteNo="0" devices="tripinfo_N_S_138" vType="standard_car" speedFactor="1.00" vaporized=""/>
    <tripinfo id="N_S_132" depart="193.00" departLane="N2TL_0" departPos="5.10" departSpeed="0.00" departDelay="185.00" arrival="318.00" arrivalLane="TL2S_0" arrivalPos="750.00" arrivalSpeed="13.16" duration="125.00" routeLength="1528.50" waitingTime="0.00" waitingCount="0" stopTime="0.00" timeLoss="9.88" rerouteNo="0" devices="tripinfo_N_S_132" vType="standard_car" speedFactor="0.96" vaporized=""/>
    <tripinfo id="S_N_181" depart="202.00" departLane="S2TL_0" departPos="5.10" departSpeed="0.00" departDelay="190.00" arrival="321.00" arrivalLane="TL2N_0" arrivalPos="750.00" arrivalSpeed="13.81" duration="119.00" routeLength="1528.50" waitingTime="0.00" waitingCount="0" stopTime="0.00" timeLoss="11.02" rerouteNo="0" devices="tripinfo_S_N_181" vType="standard_car" speedFactor="1.03" vaporized=""/>