<?xml version="1.0" encoding="UTF-8"?>

<!-- generated on Thu Feb 21 17:39:13 2019 by Eclipse SUMO Version 1.1.0
<configuration xmlns:xsi="http://www.w3.org/2001/XMLSchema-instance" xsi:noNamespaceSchemaLocation="http://sumo.dlr.de/xsd/sumoConfiguration.xsd">

    <input>
        <net-file value="environment/tlcs.net.xml"/>
        <route-files value="environment/tlcs_test.rou.xml"/>
    </input>

    <output>
        <tripinfo-output value="environment/tripinfo.xml"/>
    </output>

    <time>
        <begin value="0"/>
    </time>

    <processing>
        <time-to-teleport value="-1"/>
    </processing>

    <report>
        <no-step-log value="true"/>
    </report>

    <traci_server>
        <remote-port value="63257"/>
    </traci_server>

</configuration>
-->

<tripinfos xmlns:xsi="http://www.w3.org/2001/XMLSchema-instance" xsi:noNamespaceSchemaLocation="http://sumo.dlr.de/xsd/tripinfo_file.xsd">
    <tripinfo id="S_N_19" depart="4.00" departLane="S2TL_0" departPos="5.10" departSpeed="0.00" departDelay="4.00" arrival="146.00" arrivalLane="TL2N_0" arrivalPos="750.00" arrivalSpeed="15.97" duration="142.00" routeLength="1528.50" waitingTime="23.00" waitingCount="2" stopTime="0.00" timeLoss="46.95" rerouteNo="0" devices="tripinfo_S_N_19" vType="standard_car" speedFactor="1.16" vaporized=""/>
    <tripinfo id="N_W_0" depart="0.00" departLane="N2TL_0" departPos="5.10" departSpeed="0.00" departDelay="0.00" arrival="149.00" arrivalLane="TL2W_0" arrivalPos="750.00" arrivalSpeed="14.52" duration="149.00" routeLength="1503.93" waitingTime="24.00" waitingCount="1" stopTime="0.00" timeLoss="45.61" rerouteNo="0" devices="tripinfo_N_W_0" vType="standard_car" speedFactor="1.06" vaporized=""/>
    <tripinfo id="S_N_40" depart="14.00" departLane="S2TL_0" departPos="5.10" departSpeed="0.00" departDelay="13.00" arrival="152.00" arrivalLane="TL2N_0" arrivalPos="750.00" arrivalSpeed="13.91" duration="138.00" routeLength="1528.50" waitingTime="8.00" waitingCount="2" stopTime="0.00" timeLoss="30.60" rerouteNo="0" devices="tripinfo_S_N_40" vType="standard_car" speedFactor="1.03" vaporized=""/>
    <tripinfo id="S_N_44" depart="20.00" departLane="S2TL_0" departPos="5.10" departSpeed="0.00" departDelay="19.00" arrival="153.00" arrivalLane="TL2N_1" arrivalPos="750.00" arrivalSpeed="14.22" duration="133.00" routeLength="1528.50" waitingTime="2.00" waitingCount="1" stopTime="0.00" timeLoss="27.25" rerouteNo="0" devices="tripinfo_S_N_44" vType="standard_car" speedFactor="1.04" vaporized=""/>
    <tripinfo id="S_N_35" depart="10.00" departLane="S2TL_0" departPos="5.10" departSpeed="0.00" departDelay="9.00" arrival="154.00" arrivalLane="TL2N_0" arrivalPos="750.00" arrivalSpeed="14.09" duration="144.00" routeLength="1528.50" waitingTime="12.00" waitingCount="1" stopTime="0.00" timeLoss="35.22" rerouteNo="0" devices="tripinfo_S_N_35" vType="standard_car" speedFactor="1.02" vaporized=""/>
    <tripinfo id="N_S_22" depart="18.00" departLane="N2TL_0" departPos="5.10" departSpeed="0.00" departDelay="18.00" arrival="154.00" arrivalLane="TL2S_0" arrivalPos="750.00" arrivalSpeed="13.32" duration="136.00" routeLength="1528.50" waitingTime="1.00" waitingCount="1" stopTime="0.00" timeLoss="22.32" rerouteNo="0" devices="tripinfo_N_S_22" vType="standard_car" speedFactor="0.98" vaporized=""/>
    <tripinfo id="S_N_15" depart="0.00" departLane="S2TL_0" departPos="5.10" departSpeed="0.00" departDelay="0.00" arrival="157.00" arrivalLane="TL2N_1" arrivalPos="750.00" arrivalSpeed="12.50" duration="157.00" routeLength="1528.50" waitingTime="17.00" waitingCount="1" stopTime="0.00" timeLoss="37.62" rerouteNo="0" devices="tripinfo_S_N_15" vType="standard_car" speedFactor="0.93" vaporized=""/>
    <tripinfo id="S_N_46" depart="25.00" departLane="S2TL_0" departPos="5.10" departSpeed="0.00" departDelay="24.00" arrival="157.00" arrivalLane="TL2N_0" arrivalPos="750.00" arrivalSpeed="13.42" duration="132.00" routeLength="1528.50" waitingTime="0.00" waitingCount="0" stopTime="0.00" timeLoss="21.17" rerouteNo="0" devices="tripinfo_S_N_46" vType="standard_car" speedFactor="1.00" vaporized=""/>
    <tripinfo id="N_S_24" depart="22.00" departLane="N2TL_0" departPos="5.10" departSpeed="0.00" departDelay="22.00" arrival="166.00" arrivalLane="TL2S_0" arrivalPos="750.00" arrivalSpeed="11.42" duration="144.00" routeLength="1528.50" waitingTime="0.00" waitingCount="0" stopTime="0.00" timeLoss="10.49" rerouteNo="0" devices="tripinfo_N_S_24" vType="standard_car" speedFactor="0.83" vaporized=""/>
    <tripinfo id="W_E_13" depart="10.00" departLane="W2TL_0" departPos="5.10" departSpeed="0.00" departDelay="10.00" arrival="201.00" arrivalLane="TL2E_0" arrivalPos="750.00" arrivalSpeed="15.47" duration="191.00" routeLength="1528.50" waitingTime="70.00" waitingCount="1" stopTime="0.00" timeLoss="92.91" rerouteNo="0" devices="tripinfo_W_E_13" vType="standard_car" speedFactor="1.12" vaporized=""/>
    <tripinfo id="W_E_30" depart="37.00" departLane="W2TL_0" departPos="5.10" departSpeed="0.00" departDelay="36.00" arrival="202.00" arrivalLane="TL2E_1" arrivalPos="750.00" arrivalSpeed="16.04" duration="165.00" routeLength="1528.50" waitingTime="46.00" waitingCount="1" stopTime="0.00" timeLoss="71.58" rerouteNo="0" devices="tripinfo_W_E_30" vType="standard_car" speedFactor="1.18" vaporized=""/>
    <tripinfo id="E_W_3" depart="4.00" departLane="E2TL_0" departPos="5.10" departSpeed="0.00" departDelay="4.00" arrival="203.00" arrivalLane="TL2W_0" arrivalPos="750.00" arrivalSpeed="14.91" duration="199.00" routeLength="1528.50" waitingTime="74.00" waitingCount="1" stopTime="0.00" timeLoss="96.58" rerouteNo="0" devices="tripinfo_E_W_3" vType="standard_car" speedFactor="1.08" vaporized=""/>
    <tripinfo id="W_E_12" depart="5.00" departLane="W2TL_0" departPos="5.10" departSpeed="0.00" departDelay="5.00" arrival="203.00" arrivalLane="TL2E_0" arrivalPos="750.00" arrivalSpeed="14.48" duration="198.00" routeLength="1528.50" waitingTime="72.00" waitingCount="1" stopTime="0.00" timeLoss="92.83" rerouteNo="0" devices="tripinfo_W_E_12" vType="standard_car" speedFactor="1.05" vaporized=""/>
    <tripinfo id="E_W_28" depart="46.00" departLane="E2TL_0" departPos="5.10" departSpeed="0.00" departDelay="46.00" arrival="204.00" arrivalLane="TL2W_2" arrivalPos="750.00" arrivalSpeed="15.49" duration="158.00" routeLength="1528.50" waitingTime="33.00" waitingCount="1" stopTime="0.00" timeLoss="60.52" rerouteNo="0" devices="tripinfo_E_W_28" vType="standard_car" speedFactor="1.13" vaporized=""/>
    <tripinfo id="E_W_10" depart="28.00" departLane="E2TL_0" departPos="5.10" departSpeed="0.00" departDelay="28.00" arrival="204.00" arrivalLane="TL2W_1" arrivalPos="750.00" arrivalSpeed="14.74" duration="176.00" routeLength="1528.50" waitingTime="50.00" waitingCount="1" stopTime="0.00" timeLoss="74.33" rerouteNo="0" devices="tripinfo_E_W_10" vType="standard_car" speedFactor="1.09" vaporized=""/>
    <tripinfo id="W_E_20" depart="23.00" departLane="W2TL_0" departPos="5.10" departSpeed="0.00" departDelay="23.00" arrival="205.00" arrivalLane="TL2E_0" arrivalPos="750.00" arrivalSpeed="13.80" duration="182.00" routeLength="1528.50" waitingTime="52.00" waitingCount="1" stopTime="0.00" timeLoss="73.55" rerouteNo="0" devices="tripinfo_W_E_20" vType="standard_car" speedFactor="1.02" vaporized=""/>
    <tripinfo id="E_W_31" depart="51.00" departLane="E2TL_0" departPos="5.10" departSpeed="0.00" departDelay="50.00" arrival="206.00" arrivalLane="TL2W_1" arrivalPos="750.00" arrivalSpeed="15.97" duration="155.00" routeLength="1528.50" waitingTime="33.00" waitingCount="1" stopTime="0.00" timeLoss="59.04" rerouteNo="0" devices="tripinfo_E_W_31" vType="standard_car" speedFactor="1.15" vaporized=""/>
    <tripinfo id="E_W_2" depart="0.00" departLane="E2TL_0" departPos="5.10" departSpeed="0.00" departDelay="0.00" arrival="207.00" arrivalLane="TL2W_0" arrivalPos="750.00" arrivalSpeed="13.71" duration="207.00" routeLength="1528.50" waitingTime="76.00" waitingCount="1" stopTime="0.00" timeLoss="97.48" rerouteNo="0" devices="tripinfo_E_W_2" vType="standard_car" speedFactor="1.01" vaporized=""/>
    <tripinfo id="W_S_21" depart="28.00" departLane="W2TL_0" departPos="5.10" departSpeed="0.00" departDelay="28.00" arrival="209.00" arrivalLane="TL2S_0" arrivalPos="750.00" arrivalSpeed="13.75" duration="181.00" routeLength="1503.93" waitingTime="51.00" waitingCount="1" stopTime="0.00" timeLoss="72.14" rerouteNo="0" devices="tripinfo_W_S_21" vType="standard_car" speedFactor="1.01" vaporized=""/>
    <tripinfo id="E_W_52" depart="55.00" departLane="E2TL_0" departPos="5.10" departSpeed="0.00" departDelay="54.00" arrival="210.00" arrivalLane="TL2W_1" arrivalPos="750.00" arrivalSpeed="13.67" duration="155.00" routeLength="1528.50" waitingTime="20.00" waitingCount="1" stopTime="0.00" timeLoss="46.70" rerouteNo="0" devices="tripinfo_E_W_52" vType="standard_car" speedFactor="1.02" vaporized=""/>
    <tripinfo id="W_E_63" depart="70.00" departLane="W2TL_0" departPos="5.10" departSpeed="0.00" departDelay="68.00" arrival="212.00" arrivalLane="TL2E_3" arrivalPos="750.00" arrivalSpeed="13.48" duration="142.00" routeLength="1528.50" waitingTime="7.00" waitingCount="1" stopTime="0.00" timeLoss="30.00" rerouteNo="0" devices="tripinfo_W_E_63" vType="standard_car" speedFactor="0.99" vaporized=""/>
    <tripinfo id="E_W_18" depart="37.00" departLane="E2TL_0" departPos="5.10" departSpeed="0.00" departDelay="37.00" arrival="212.00" arrivalLane="TL2W_0" arrivalPos="750.00" arrivalSpeed="12.55" duration="175.00" routeLength="1528.50" waitingTime="36.00" waitingCount="1" stopTime="0.00" timeLoss="56.80" rerouteNo="0" devices="tripinfo_E_W_18" vType="standard_car" speedFactor="0.94" vaporized=""/>
    <tripinfo id="W_E_27" depart="32.00" departLane="W2TL_0" departPos="5.10" departSpeed="0.00" departDelay="32.00" arrival="212.00" arrivalLane="TL2E_2" arrivalPos="750.00" arrivalSpeed="13.03" duration="180.00" routeLength="1528.50" waitingTime="39.00" waitingCount="1" stopTime="0.00" timeLoss="63.50" rerouteNo="0" devices="tripinfo_W_E_27" vType="standard_car" speedFactor="0.95" vaporized=""/>
    <tripinfo id="W_E_17" depart="18.00" departLane="W2TL_0" departPos="5.10" departSpeed="0.00" departDelay="18.00" arrival="212.00" arrivalLane="TL2E_0" arrivalPos="750.00" arrivalSpeed="12.67" duration="194.00" routeLength="1528.50" waitingTime="56.00" waitingCount="2" stopTime="0.00" timeLoss="76.38" rerouteNo="0" devices="tripinfo_W_E_17" vType="standard_car" speedFactor="0.94" vaporized=""/>
    <tripinfo id="W_E_41" depart="51.00" departLane="W2TL_0" departPos="5.10" departSpeed="0.00" departDelay="50.00" arrival="213.00" arrivalLane="TL2E_1" arrivalPos="750.00" arrivalSpeed="13.15" duration="162.00" routeLength="1528.50" waitingTime="25.00" waitingCount="1" stopTime="0.00" timeLoss="46.16" rerouteNo="0" devices="tripinfo_W_E_41" vType="standard_car" speedFactor="0.96" vaporized=""/>
    <tripinfo id="E_W_7" depart="18.00" departLane="E2TL_0" departPos="5.10" departSpeed="0.00" departDelay="18.00" arrival="216.00" arrivalLane="TL2W_0" arrivalPos="750.00" arrivalSpeed="12.19" duration="198.00" routeLength="1528.50" waitingTime="52.00" waitingCount="1" stopTime="0.00" timeLoss="73.01" rerouteNo="0" devices="tripinfo_E_W_7" vType="standard_car" speedFactor="0.89" vaporized=""/>
    <tripinfo id="E_N_9" depart="23.00" departLane="E2TL_0" departPos="5.10" departSpeed="0.00" departDelay="23.00" arrival="218.00" arrivalLane="TL2N_0" arrivalPos="750.00" arrivalSpeed="11.82" duration="195.00" routeLength="1503.93" waitingTime="45.00" waitingCount="1" stopTime="0.00" timeLoss="67.26" rerouteNo="0" devices="tripinfo_E_N_9" vType="standard_car" speedFactor="0.86" vaporized=""/>
    <tripinfo id="E_S_6" depart="13.00" departLane="E2TL_0" departPos="5.10" departSpeed="0.00" departDelay="13.00" arrival="238.00" arrivalLane="TL2S_0" arrivalPos="750.00" arrivalSpeed="14.11" duration="225.00" routeLength="1524.57" waitingTime="97.00" waitingCount="1" stopTime="0.00" timeLoss="119.42" rerouteNo="0" devices="tripinfo_E_S_6" vType="standard_car" speedFactor="1.05" vaporized=""/>
    <tripinfo id="W_N_1" depart="0.00" departLane="W2TL_0" departPos="5.10" departSpeed="0.00" departDelay="0.00" arrival="244.00" arrivalLane="TL2N_0" arrivalPos="750.00" arrivalSpeed="12.62" duration="244.00" routeLength="1524.57" waitingTime="104.00" waitingCount="1" stopTime="0.00" timeLoss="125.91" rerouteNo="0" devices="tripinfo_W_N_1" vType="standard_car" speedFactor="0.94" vaporized=""/>
    <tripinfo id="W_N_36" depart="42.00" departLane="W2TL_0" departPos="5.10" departSpeed="0.00" departDelay="41.00" arrival="246.00" arrivalLane="TL2N_0" arrivalPos="750.00" arrivalSpeed="13.13" duration="204.00" routeLength="1524.57" waitingTime="70.00" waitingCount="1" stopTime="0.00" timeLoss="90.12" rerouteNo="0" devices="tripinfo_W_N_36" vType="standard_car" speedFactor="0.97" vaporized=""/>
    <tripinfo id="W_N_16" depart="14.00" departLane="W2TL_0" departPos="5.10" departSpeed="0.00" departDelay="14.00" arrival="250.00" arrivalLane="TL2N_0" arrivalPos="750.00" arrivalSpeed="12.14" duration="236.00" routeLength="1524.57" waitingTime="90.00" waitingCount="1" stopTime="0.00" timeLoss="109.58" rerouteNo="0" devices="tripinfo_W_N_16" vType="standard_car" speedFactor="0.88" vaporized=""/>
    <tripinfo id="E_S_23" depart="41.00" departLane="E2TL_0" departPos="5.10" departSpeed="0.00" departDelay="41.00" arrival="251.00" arrivalLane="TL2S_0" arrivalPos="750.00" arrivalSpeed="12.02" duration="210.00" routeLength="1524.57" waitingTime="64.00" waitingCount="1" stopTime="0.00" timeLoss="85.20" rerouteNo="0" devices="tripinfo_E_S_23" vType="standard_car" speedFactor="0.89" vaporized=""/>
    <tripinfo id="E_S_5" depart="9.00" departLane="E2TL_0" departPos="5.10" departSpeed="0.00" departDelay="9.00" arrival="253.00" arrivalLane="TL2S_0" arrivalPos="750.00" arrivalSpeed="11.46" duration="244.00" routeLength="1524.57" waitingTime="92.00" waitingCount="1" stopTime="0.00" timeLoss="111.04" rerouteNo="0" devices="tripinfo_E_S_5" vType="standard_car" speedFactor="0.83" vaporized=""/>
    <tripinfo id="S_E_4" depart="4.00" departLane="N2TL_0" departPos="5.10" departSpeed="0.00" departDelay="4.00" arrival="262.00" arrivalLane="TL2E_0" arrivalPos="750.00" arrivalSpeed="14.16" duration="258.00" routeLength="1524.57" waitingTime="129.00" waitingCount="1" stopTime="0.00" timeLoss="150.34" rerouteNo="0" devices="tripinfo_S_E_4" vType="standard_car" speedFactor="1.03" vaporized=""/>
    <tripinfo id="S_W_133" depart="119.00" departLane="S2TL_0" departPos="5.10" departSpeed="0.00" departDelay="111.00" arrival="263.00" arrivalLane="TL2W_1" arrivalPos="750.00" arrivalSpeed="14.10" duration="144.00" routeLength="1524.57" waitingTime="14.00" waitingCount="1" stopTime="0.00" timeLoss="37.55" rerouteNo="0" devices="tripinfo_S_W_133" vType="standard_car" speedFactor="1.04" vaporized=""/>
    <tripinfo id="S_E_33" depart="44.00" departLane="N2TL_0" departPos="5.10" departSpeed="0.00" departDelay="43.00" arrival="263.00" arrivalLane="TL2E_2" arrivalPos="750.00" arrivalSpeed="15.86" duration="219.00" routeLength="1524.57" waitingTime="97.00" waitingCount="1" stopTime="0.00" timeLoss="124.47" rerouteNo="0" devices="tripinfo_S_E_33" vType="standard_car" speedFactor="1.17" vaporized=""/>
    <tripinfo id="S_W_83" depart="77.00" departLane="S2TL_0" departPos="5.10" departSpeed="0.00" departDelay="74.00" arrival="264.00" arrivalLane="TL2W_0" arrivalPos="750.00" arrivalSpeed="13.25" duration="187.00" routeLength="1524.57" waitingTime="52.00" waitingCount="1" stopTime="0.00" timeLoss="72.87" rerouteNo="0" devices="tripinfo_S_W_83" vType="standard_car" speedFactor="0.97" vaporized=""/>
    <tripinfo id="S_E_14" depart="13.00" departLane="N2TL_0" departPos="5.10" departSpeed="0.00" departDelay="13.00" arrival="267.00" arrivalLane="TL2E_1" arrivalPos="750.00" arrivalSpeed="13.46" duration="254.00" routeLength="1524.57" waitingTime="121.00" waitingCount="1" stopTime="0.00" timeLoss="142.27" rerouteNo="0" devices="tripinfo_S_E_14" vType="standard_car" speedFactor="0.99" vaporized=""/>
    <tripinfo id="S_E_8" depart="8.00" departLane="N2TL_0" departPos="5.10" departSpeed="0.00" departDelay="8.00" arrival="268.00" arrivalLane="TL2E_0" arrivalPos="750.00" arrivalSpeed="13.02" duration="260.00" routeLength="1524.57" waitingTime="121.00" waitingCount="1" stopTime="0.00" timeLoss="141.98" rerouteNo="0" devices="tripinfo_S_E_8" vType="standard_car" speedFactor="0.94" vaporized=""/>
    <tripinfo id="S_E_94" depart="134.00" departLane="N2TL_0" departPos="5.10" departSpeed="0.00" departDelay="130.00" arrival="270.00" arrivalLane="TL2E_1" arrivalPos="750.00" arrivalSpeed="15.07" duration="136.00" routeLength="1524.57" waitingTime="10.00" waitingCount="1" stopTime="0.00" timeLoss="34.13" rerouteNo="0" devices="tripinfo_S_E_94" vType="standard_car" speedFactor="1.09" vaporized=""/>
    <tripinfo id="S_E_71" depart="101.00" departLane="N2TL_0" departPos="5.10" departSpeed="0.00" departDelay="99.00" arrival="272.00" arrivalLane="TL2E_0" arrivalPos="750.00" arrivalSpeed="13.36" duration="171.00" routeLength="1524.57" waitingTime="36.00" waitingCount="1" stopTime="0.00" timeLoss="56.92" rerouteNo="0" devices="tripinfo_S_E_71" vType="standard_car" speedFactor="0.97" vaporized=""/>
    <tripinfo id="S_E_72" depart="105.00" departLane="N2TL_0" departPos="5.10" departSpeed="0.00" departDelay="103.00" arrival="275.00" arrivalLane="TL2E_0" arrivalPos="750.00" arrivalSpeed="12.69" duration="170.00" routeLength="1524.57" waitingTime="30.00" waitingCount="1" stopTime="0.00" timeLoss="52.54" rerouteNo="0" devices="tripinfo_S_E_72" vType="standard_car" speedFactor="0.94" vaporized=""/>
    <tripinfo id="S_W_166" depart="178.00" departLane="S2TL_0" departPos="5.10" departSpeed="0.00" departDelay="167.00" arrival="304.00" arrivalLane="TL2W_0" arrivalPos="750.00" arrivalSpeed="13.49" duration="126.00" routeLength="1524.57" waitingTime="0.00" waitingCount="0" stopTime="0.00" timeLoss="16.07" rerouteNo="0" devices="tripinfo_S_W_166" vType="standard_car" speedFactor="1.00" vaporized=""/>
    <tripinfo id="N_E_131" depart="190.00" departLane="N2TL_0" departPos="5.10" departSpeed="0.00" departDelay="182.00" arrival="306.00" arrivalLane="TL2E_1" arrivalPos="750.00" arrivalSpeed="14.35" duration="116.00" routeLength="1524.57" waitingTime="1.00" waitingCount="1" stopTime="0.00" timeLoss="12.63" rerouteNo="0" devices="tripinfo_N_E_131" vType="standard_car" speedFactor="1.07" vaporized=""/>
    <tripinfo id="S_W_153" depart="156.00" departLane="S2TL_0" departPos="5.10" departSpeed="0.00" departDelay="147.00" arrival="307.00" arrivalLane="TL2W_0" arrivalPos="750.00" arrivalSpeed="12.85" duration="151.00" routeLength="1524.57" waitingTime="10.00" waitingCount="1" stopTime="0.00" timeLoss="31.27" rerouteNo="0" devices="tripinfo_S_W_153" vType="standard_car" speedFactor="0.93" vaporized=""/>
    <tripinfo id="N_E_110" depart="157.00" departLane="N2TL_0" departPos="5.10" departSpeed="0.00" departDelay="151.00" arrival="309.00" arrivalLane="TL2E_1" arrivalPos="750.00" arrivalSpeed="12.55" duration="152.00" routeLength="1524.57" waitingTime="10.00" waitingCount="1" stopTime="0.00" timeLoss="32.34" rerouteNo="0" devices="tripinfo_N_E_110" vType="standard_car" speedFactor="0.93" vaporized=""/>
    <tripinfo id="N_E_104" depart="148.00" departLane="N2TL_0" departPos="5.10" departSpeed="0.00" departDelay="143.00" arrival="309.00" arrivalLane="TL2E_0" arrivalPos="750.00" arrivalSpeed="12.23" duration="161.00" routeLength="1524.57" waitingTime="17.00" waitingCount="1" stopTime="0.00" timeLoss="37.21" rerouteNo="0" devices="tripinfo_N_E_104" vType="standard_car" speedFactor="0.89" vaporized=""/>
    <tripinfo id="S_W_171" depart="188.00" departLane="S2TL_0" departPos="5.10" departSpeed="0.00" departDelay="177.00" arrival="321.00" arrivalLane="TL2W_0" arrivalPos="750.00" arrivalSpeed="12.36" duration="133.00" routeLength="1524.57" waitingTime="0.00" waitingCount="0" stopTime="0.00" timeLoss="9.93" rerouteNo="0" devices="tripinfo_S_W_171" vType="standard_car" speedFactor="0.90" vaporized=""/>
    <tripinfo id="E_W_57" depart="69.00" departLane="E2TL_0" departPos="5.10" departSpeed="0.00" departDelay="68.00" arrival="331.00" arrivalLane="TL2W_0" arrivalPos="750.00" arrivalSpeed="15.41" duration="262.00" routeLength="1528.50" waitingTime="132.00" waitingCount="2" stopTime="0.00" timeLoss="164.92" rerouteNo="0" devices="tripinfo_E_W_57" vType="standard_car" speedFactor="1.14" vaporized=""/>
    <tripinfo id="E_W_105" depart="97.00" departLane="E2TL_0" departPos="5.10" departSpeed="0.00" departDelay="92.00" arrival="333.00" arrivalLane="TL2W_0" arrivalPos="750.00" arrivalSpeed="14.72" duration="236.00" routeLength="1528.50" waitingTime="109.00" waitingCount="1" stopTime="0.00" timeLoss="132.62" rerouteNo="0" devices="tripinfo_E_W_105" vType="standard_car" speedFactor="1.07" vaporized=""/>
    <tripinfo id="E_N_11" depart="32.00" departLane="E2TL_0" departPos="5.10" departSpeed="0.00" departDelay="32.00" arrival="334.00" arrivalLane="TL2N_0" arrivalPos="750.00" arrivalSpeed="13.86" duration="302.00" routeLength="1503.93" waitingTime="163.00" waitingCount="2" stopTime="0.00" timeLoss="195.52" rerouteNo="0" devices="tripinfo_E_N_11" vType="standard_car" speedFactor="1.03" vaporized=""/>
    <tripinfo id="W_S_58" depart="65.00" departLane="W2TL_0" departPos="5.10" departSpeed="0.00" departDelay="63.00" arrival="335.00" arrivalLane="TL2S_0" arrivalPos="750.00" arrivalSpeed="14.00" duration="270.00" routeLength="1503.93" waitingTime="123.00" waitingCount="2" stopTime="0.00" timeLoss="163.21" rerouteNo="0" devices="tripinfo_W_S_58" vType="standard_car" speedFactor="1.02" vaporized=""/>
    <tripinfo id="E_W_136" depart="124.00" departLane="E2TL_0" departPos="5.10" departSpeed="0.00" departDelay="116.00" arrival="335.00" arrivalLane="TL2W_1" arrivalPos="750.00" arrivalSpeed="15.30" duration="211.00" routeLength="1528.50" waitingTime="88.00" waitingCount="1" stopTime="0.00" timeLoss="112.54" rerouteNo="0" devices="tripinfo_E_W_136" vType="standard_car" speedFactor="1.12" vaporized=""/>
    <tripinfo id="E_N_60" depart="79.00" departLane="E2TL_0" departPos="5.10" departSpeed="0.00" departDelay="77.00" arrival="336.00" arrivalLane="TL2N_1" arrivalPos="750.00" arrivalSpeed="14.66" duration="257.00" routeLength="1503.93" waitingTime="121.00" waitingCount="2" stopTime="0.00" timeLoss="155.32" rerouteNo="0" devices="tripinfo_E_N_60" vType="standard_car" speedFactor="1.08" vaporized=""/>
    <tripinfo id="W_S_73" depart="88.00" departLane="W2TL_0" departPos="5.10" departSpeed="0.00" departDelay="86.00" arrival="336.00" arrivalLane="TL2S_1" arrivalPos="750.00" arrivalSpeed="14.21" duration="248.00" routeLength="1503.93" waitingTime="115.00" waitingCount="1" stopTime="0.00" timeLoss="144.59" rerouteNo="0" devices="tripinfo_W_S_73" vType="standard_car" speedFactor="1.06" vaporized=""/>
    <tripinfo id="E_W_108" depart="102.00" departLane="E2TL_0" departPos="5.10" departSpeed="0.00" departDelay="97.00" arrival="336.00" arrivalLane="TL2W_0" arrivalPos="750.00" arrivalSpeed="14.58" duration="234.00" routeLength="1528.50" waitingTime="108.00" waitingCount="1" stopTime="0.00" timeLoss="129.70" rerouteNo="0" devices="tripinfo_E_W_108" vType="standard_car" speedFactor="1.06" vaporized=""/>
    <tripinfo id="W_E_76" depart="92.00" departLane="W2TL_0" departPos="5.10" departSpeed="0.00" departDelay="89.00" arrival="338.00" arrivalLane="TL2E_2" arrivalPos="750.00" arrivalSpeed="13.86" duration="246.00" routeLength="1528.50" waitingTime="113.00" waitingCount="2" stopTime="0.00" timeLoss="138.91" rerouteNo="0" devices="tripinfo_W_E_76" vType="standard_car" speedFactor="1.03" vaporized=""/>
    <tripinfo id="E_W_113" depart="106.00" departLane="E2TL_0" departPos="5.10" departSpeed="0.00" departDelay="100.00" arrival="338.00" arrivalLane="TL2W_0" arrivalPos="750.00" arrivalSpeed="13.52" duration="232.00" routeLength="1528.50" waitingTime="101.00" waitingCount="1" stopTime="0.00" timeLoss="122.06" rerouteNo="0" devices="tripinfo_E_W_113" vType="standard_car" speedFactor="1.01" vaporized=""/>
    <tripinfo id="E_W_119" depart="115.00" departLane="E2TL_0" departPos="5.10" departSpeed="0.00" departDelay="109.00" arrival="339.00" arrivalLane="TL2W_0" arrivalPos="750.00" arrivalSpeed="14.51" duration="224.00" routeLength="1528.50" waitingTime="95.00" waitingCount="1" stopTime="0.00" timeLoss="120.28" rerouteNo="0" devices="tripinfo_E_W_119" vType="standard_car" speedFactor="1.07" vaporized=""/>
    <tripinfo id="W_E_87" depart="108.00" departLane="W2TL_0" departPos="5.10" departSpeed="0.00" departDelay="105.00" arrival="339.00" arrivalLane="TL2E_0" arrivalPos="750.00" arrivalSpeed="14.09" duration="231.00" routeLength="1528.50" waitingTime="100.00" waitingCount="1" stopTime="0.00" timeLoss="125.23" rerouteNo="0" devices="tripinfo_W_E_87" vType="standard_car" speedFactor="1.04" vaporized=""/>
    <tripinfo id="E_W_59" depart="74.00" departLane="E2TL_0" departPos="5.10" departSpeed="0.00" departDelay="72.00" arrival="340.00" arrivalLane="TL2W_0" arrivalPos="750.00" arrivalSpeed="13.10" duration="266.00" routeLength="1528.50" waitingTime="122.00" waitingCount="2" stopTime="0.00" timeLoss="152.31" rerouteNo="0" devices="tripinfo_E_W_59" vType="standard_car" speedFactor="0.97" vaporized=""/>
    <tripinfo id="W_E_66" depart="74.00" departLane="W2TL_0" departPos="5.10" departSpeed="0.00" departDelay="72.00" arrival="342.00" arrivalLane="TL2E_1" arrivalPos="750.00" arrivalSpeed="12.24" duration="268.00" routeLength="1528.50" waitingTime="117.00" waitingCount="1" stopTime="0.00" timeLoss="146.52" rerouteNo="0" devices="tripinfo_W_E_66" vType="standard_car" speedFactor="0.91" vaporized=""/>
    <tripinfo id="W_E_80" depart="98.00" departLane="W2TL_0" departPos="5.10" departSpeed="0.00" departDelay="95.00" arrival="343.00" arrivalLane="TL2E_2" arrivalPos="750.00" arrivalSpeed="14.37" duration="245.00" routeLength="1528.50" waitingTime="109.00" waitingCount="1" stopTime="0.00" timeLoss="137.84" rerouteNo="0" devices="tripinfo_W_E_80" vType="standard_car" speedFactor="1.03" vaporized=""/>
    <tripinfo id="W_E_39" depart="46.00" departLane="W2TL_0" departPos="5.10" departSpeed="0.00" departDelay="45.00" arrival="343.00" arrivalLane="TL2E_0" arrivalPos="750.00" arrivalSpeed="12.02" duration="297.00" routeLength="1528.50" waitingTime="145.00" waitingCount="2" stopTime="0.00" timeLoss="173.93" rerouteNo="0" devices="tripinfo_W_E_39" vType="standard_car" speedFactor="0.90" vaporized=""/>
    <tripinfo id="W_E_70" depart="84.00" departLane="W2TL_0" departPos="5.10" departSpeed="0.00" departDelay="82.00" arrival="344.00" arrivalLane="TL2E_1" arrivalPos="750.00" arrivalSpeed="14.16" duration="260.00" routeLength="1528.50" waitingTime="117.00" waitingCount="1" stopTime="0.00" timeLoss="151.83" rerouteNo="0" devices="tripinfo_W_E_70" vType="standard_car" speedFactor="1.02" vaporized=""/>
    <tripinfo id="W_E_49" depart="61.00" departLane="W2TL_0" departPos="5.10" departSpeed="0.00" departDelay="60.00" arrival="346.00" arrivalLane="TL2E_0" arrivalPos="750.00" arrivalSpeed="11.42" duration="285.00" routeLength="1528.50" waitingTime="122.00" waitingCount="3" stopTime="0.00" timeLoss="155.24" rerouteNo="0" devices="tripinfo_W_E_49" vType="standard_car" speedFactor="0.85" vaporized=""/>
    <tripinfo id="S_E_159" depart="220.00" departLane="N2TL_0" departPos="5.10" departSpeed="0.00" departDelay="210.00" arrival="347.00" arrivalLane="TL2E_2" arrivalPos="750.00" arrivalSpeed="15.40" duration="127.00" routeLength="1524.57" waitingTime="6.00" waitingCount="1" stopTime="0.00" timeLoss="30.02" rerouteNo="0" devices="tripinfo_S_E_159" vType="standard_car" speedFactor="1.14" vaporized=""/>
    <tripinfo id="N_E_154" depart="215.00" departLane="N2TL_0" departPos="5.10" departSpeed="0.00" departDelay="206.00" arrival="348.00" arrivalLane="TL2E_1" arrivalPos="750.00" arrivalSpeed="14.53" duration="133.00" routeLength="1524.57" waitingTime="7.00" waitingCount="1" stopTime="0.00" timeLoss="29.27" rerouteNo="0" devices="tripinfo_N_E_154" vType="standard_car" speedFactor="1.06" vaporized=""/>
    <tripinfo id="S_W_187" depart="210.00" departLane="S2TL_0" departPos="5.10" departSpeed="0.00" departDelay="197.00" arrival="357.00" arrivalLane="TL2W_0" arrivalPos="750.00" arrivalSpeed="12.28" duration="147.00" routeLength="1524.57" waitingTime="3.00" waitingCount="1" stopTime="0.00" timeLoss="22.82" rerouteNo="0" devices="tripinfo_S_W_187" vType="standard_car" speedFactor="0.89" vaporized=""/>
    <tripinfo id="E_W_145" depart="128.00" departLane="E2TL_0" departPos="5.10" departSpeed="0.00" departDelay="119.00" arrival="359.00" arrivalLane="TL2W_0" arrivalPos="750.00" arrivalSpeed="15.67" duration="231.00" routeLength="1528.50" waitingTime="101.00" waitingCount="2" stopTime="0.00" timeLoss="134.53" rerouteNo="0" devices="tripinfo_E_W_145" vType="standard_car" speedFactor="1.14" vaporized=""/>
    <tripinfo id="W_E_114" depart="145.00" departLane="W2TL_0" departPos="5.10" departSpeed="0.00" departDelay="139.00" arrival="362.00" arrivalLane="TL2E_1" arrivalPos="750.00" arrivalSpeed="15.13" duration="217.00" routeLength="1528.50" waitingTime="81.00" waitingCount="2" stopTime="0.00" timeLoss="116.58" rerouteNo="0" devices="tripinfo_W_E_114" vType="standard_car" speedFactor="1.10" vaporized=""/>
    <tripinfo id="E_W_180" depart="161.00" departLane="E2TL_0" departPos="5.10" departSpeed="0.00" departDelay="149.00" arrival="362.00" arrivalLane="TL2W_0" arrivalPos="750.00" arrivalSpeed="14.94" duration="201.00" routeLength="1528.50" waitingTime="67.00" waitingCount="3" stopTime="0.00" timeLoss="100.31" rerouteNo="0" devices="tripinfo_E_W_180" vType="standard_car" speedFactor="1.10" vaporized=""/>