<?xml version="1.0" encoding="UTF-8"?>

<!-- generated on Wed Feb 13 15:59:30 2019 by Eclipse SUMO Version 1.1.0
<configuration xmlns:xsi="http://www.w3.org/2001/XMLSchema-instance" xsi:noNamespaceSchemaLocation="http://sumo.dlr.de/xsd/sumoConfiguration.xsd">

    <input>
        <net-file value="environment/model.net.xml"/>
        <route-files value="environment/model.rou.xml"/>
    </input>

    <output>
        <tripinfo-output value="environment/tripinfo.xml"/>
    </output>

    <time>
        <begin value="0"/>
    </time>

    <traci_server>
        <remote-port value="37993"/>
    </traci_server>

    <gui_only>
        <gui-settings-file value="environment/model.gui.settings.xml"/>
        <start value="true"/>
    </gui_only>

</configuration>
-->

<tripinfos xmlns:xsi="http://www.w3.org/2001/XMLSchema-instance" xsi:noNamespaceSchemaLocation="http://sumo.dlr.de/xsd/tripinfo_file.xsd">
    <tripinfo id="S2E_3" depart="1.00" departLane="1_1_7-1_1_0_0" departPos="5.10" departSpeed="0.00" departDelay="0.00" arrival="17.00" arrivalLane="1_1_0-1_1_5_0" arrivalPos="45.25" arrivalSpeed="11.79" duration="16.00" routeLength="90.40" waitingTime="0.00" waitingCount="0" stopTime="0.00" timeLoss="9.04" rerouteNo="0" devices="tripinfo_S2E_3" vType="SUMO_DEFAULT_TYPE" speedFactor="1.08" vaporized=""/>
    <tripinfo id="S2E_5" depart="5.00" departLane="1_1_7-1_1_0_0" departPos="5.10" departSpeed="0.00" departDelay="0.00" arrival="21.00" arrivalLane="1_1_0-1_1_5_0" arrivalPos="45.25" arrivalSpeed="10.90" duration="16.00" routeLength="90.40" waitingTime="0.00" waitingCount="0" stopTime="0.00" timeLoss="7.08" rerouteNo="0" devices="tripinfo_S2E_5" vType="SUMO_DEFAULT_TYPE" speedFactor="0.83" vaporized=""/>
    <tripinfo id="N2E_1" depart="0.00" departLane="1_1_3-1_1_0_0" departPos="5.10" departSpeed="0.00" departDelay="0.00" arrival="27.00" arrivalLane="1_1_0-1_1_5_0" arrivalPos="45.25" arrivalSpeed="8.57" duration="27.00" routeLength="95.72" waitingTime="5.00" waitingCount="1" stopTime="0.00" timeLoss="19.02" rerouteNo="0" devices="tripinfo_N2E_1" vType="SUMO_DEFAULT_TYPE" speedFactor="0.94" vaporized=""/>
    <tripinfo id="N2W_4" depart="5.00" departLane="1_1_3-1_1_0_0" departPos="5.10" departSpeed="0.00" departDelay="2.00" arrival="30.00" arrivalLane="1_1_0-1_1_1_0" arrivalPos="45.25" arrivalSpeed="8.60" duration="25.00" routeLength="90.40" waitingTime="1.00" waitingCount="1" stopTime="0.00" timeLoss="18.24" rerouteNo="0" devices="tripinfo_N2W_4" vType="SUMO_DEFAULT_TYPE" speedFactor="1.03" vaporized=""/>
    <tripinfo id="N2W_6" depart="10.00" departLane="1_1_3-1_1_0_0" departPos="5.10" departSpeed="0.00" departDelay="3.00" arrival="33.00" arrivalLane="1_1_0-1_1_1_0" arrivalPos="45.25" arrivalSpeed="9.39" duration="23.00" routeLength="90.40" waitingTime="0.00" waitingCount="0" stopTime="0.00" timeLoss="16.16" rerouteNo="0" devices="tripinfo_N2W_6" vType="SUMO_DEFAULT_TYPE" speedFactor="1.05" vaporized=""/>
    <tripinfo id="E2W_0" depart="0.00" departLane="1_1_5-1_1_0_0" departPos="5.10" departSpeed="0.00" departDelay="0.00" arrival="56.00" arrivalLane="1_1_0-1_1_1_0" arrivalPos="45.25" arrivalSpeed="9.02" duration="56.00" routeLength="94.90" waitingTime="32.00" waitingCount="1" stopTime="0.00" timeLoss="49.12" rerouteNo="0" devices="tripinfo_E2W_0" vType="SUMO_DEFAULT_TYPE" speedFactor="1.06" vaporized=""/>
    <tripinfo id="W2E_2" depart="1.00" departLane="1_1_1-1_1_0_0" departPos="5.10" departSpeed="0.00" departDelay="0.00" arrival="56.00" arrivalLane="1_1_0-1_1_5_0" arrivalPos="45.25" arrivalSpeed="9.05" duration="55.00" routeLength="94.90" waitingTime="32.00" waitingCount="1" stopTime="0.00" timeLoss="47.61" rerouteNo="0" devices="tripinfo_W2E_2" vType="SUMO_DEFAULT_TYPE" speedFactor="1.01" vaporized=""/>
    <tripinfo id="E2N_9" depart="10.00" departLane="1_1_5-1_1_0_0" departPos="5.10" departSpeed="0.00" departDelay="0.00" arrival="58.00" arrivalLane="1_1_0-1_1_3_0" arrivalPos="45.25" arrivalSpeed="9.00" duration="48.00" routeLength="90.40" waitingTime="25.00" waitingCount="1" stopTime="0.00" timeLoss="39.81" rerouteNo="0" devices="tripinfo_E2N_9" vType="SUMO_DEFAULT_TYPE" speedFactor="0.86" vaporized=""/>
    <tripinfo id="W2S_7" depart="8.00" departLane="1_1_1-1_1_0_0" departPos="5.10" departSpeed="0.00" departDelay="0.00" arrival="58.00" arrivalLane="1_1_0-1_1_7_0" arrivalPos="45.25" arrivalSpeed="9.22" duration="50.00" routeLength="90.40" waitingTime="28.00" waitingCount="1" stopTime="0.00" timeLoss="42.08" rerouteNo="0" devices="tripinfo_W2S_7" vType="SUMO_DEFAULT_TYPE" speedFactor="0.89" vaporized=""/>
    <tripinfo id="E2N_14" depart="28.00" departLane="1_1_5-1_1_0_0" departPos="5.10" departSpeed="0.00" departDelay="0.00" arrival="60.00" arrivalLane="1_1_0-1_1_3_0" arrivalPos="45.25" arrivalSpeed="9.98" duration="32.00" routeLength="90.40" waitingTime="9.00" waitingCount="1" stopTime="0.00" timeLoss="24.79" rerouteNo="0" devices="tripinfo_E2N_14" vType="SUMO_DEFAULT_TYPE" speedFactor="0.99" vaporized=""/>
    <tripinfo id="W2S_8" depart="12.00" departLane="1_1_1-1_1_0_0" departPos="5.10" departSpeed="0.00" departDelay="2.00" arrival="60.00" arrivalLane="1_1_0-1_1_7_0" arrivalPos="45.25" arrivalSpeed="9.99" duration="48.00" routeLength="90.40" waitingTime="25.00" waitingCount="2" stopTime="0.00" timeLoss="40.37" rerouteNo="0" devices="tripinfo_W2S_8" vType="SUMO_DEFAULT_TYPE" speedFactor="0.94" vaporized=""/>
    <tripinfo id="W2E_13" depart="27.00" departLane="1_1_1-1_1_0_0" departPos="5.10" departSpeed="0.00" departDelay="0.00" arrival="62.00" arrivalLane="1_1_0-1_1_5_0" arrivalPos="45.25" arrivalSpeed="10.57" duration="35.00" routeLength="94.90" waitingTime="12.00" waitingCount="1" stopTime="0.00" timeLoss="28.57" rerouteNo="0" devices="tripinfo_W2E_13" vType="SUMO_DEFAULT_TYPE" speedFactor="1.12" vaporized=""/>
    <tripinfo id="W2N_15" depart="32.00" departLane="1_1_1-1_1_0_0" departPos="5.10" departSpeed="0.00" departDelay="2.00" arrival="74.00" arrivalLane="1_1_0-1_1_3_0" arrivalPos="45.25" arrivalSpeed="8.50" duration="42.00" routeLength="95.72" waitingTime="13.00" waitingCount="2" stopTime="0.00" timeLoss="33.81" rerouteNo="0" devices="tripinfo_W2N_15" vType="SUMO_DEFAULT_TYPE" speedFactor="0.93" vaporized=""/>
    <tripinfo id="W2E_23" depart="42.00" departLane="1_1_1-1_1_0_0" departPos="5.10" departSpeed="0.00" departDelay="0.00" arrival="77.00" arrivalLane="1_1_0-1_1_5_0" arrivalPos="45.25" arrivalSpeed="9.39" duration="35.00" routeLength="94.90" waitingTime="8.00" waitingCount="2" stopTime="0.00" timeLoss="26.69" rerouteNo="0" devices="tripinfo_W2E_23" vType="SUMO_DEFAULT_TYPE" speedFactor="0.89" vaporized=""/>
    <tripinfo id="W2E_25" depart="54.00" departLane="1_1_1-1_1_0_0" departPos="5.10" departSpeed="0.00" departDelay="10.00" arrival="79.00" arrivalLane="1_1_0-1_1_5_0" arrivalPos="45.25" arrivalSpeed="9.68" duration="25.00" routeLength="94.90" waitingTime="0.00" waitingCount="0" stopTime="0.00" timeLoss="16.51" rerouteNo="0" devices="tripinfo_W2E_25" vType="SUMO_DEFAULT_TYPE" speedFactor="0.87" vaporized=""/>
    <tripinfo id="W2E_30" depart="59.00" departLane="1_1_1-1_1_0_0" departPos="5.10" departSpeed="0.00" departDelay="2.00" arrival="81.00" arrivalLane="1_1_0-1_1_5_0" arrivalPos="45.25" arrivalSpeed="9.88" duration="22.00" routeLength="94.90" waitingTime="0.00" waitingCount="0" stopTime="0.00" timeLoss="15.82" rerouteNo="0" devices="tripinfo_W2E_30" vType="SUMO_DEFAULT_TYPE" speedFactor="1.18" vaporized=""/>
    <tripinfo id="E2S_16" depart="32.00" departLane="1_1_5-1_1_0_0" departPos="5.10" departSpeed="0.00" departDelay="0.00" arrival="88.00" arrivalLane="1_1_0-1_1_7_0" arrivalPos="45.25" arrivalSpeed="8.49" duration="56.00" routeLength="95.72" waitingTime="25.00" waitingCount="2" stopTime="0.00" timeLoss="47.38" rerouteNo="0" devices="tripinfo_E2S_16" vType="SUMO_DEFAULT_TYPE" speedFactor="0.88" vaporized=""/>
    <tripinfo id="S2E_17" depart="34.00" departLane="1_1_7-1_1_0_0" departPos="5.10" departSpeed="0.00" departDelay="0.00" arrival="100.00" arrivalLane="1_1_0-1_1_5_0" arrivalPos="45.25" arrivalSpeed="8.73" duration="66.00" routeLength="90.40" waitingTime="43.00" waitingCount="1" stopTime="0.00" timeLoss="58.77" rerouteNo="0" devices="tripinfo_S2E_17" vType="SUMO_DEFAULT_TYPE" speedFactor="0.94" vaporized=""/>
    <tripinfo id="N2W_10" depart="22.00" departLane="1_1_3-1_1_0_0" departPos="5.10" departSpeed="0.00" departDelay="0.00" arrival="101.00" arrivalLane="1_1_0-1_1_1_0" arrivalPos="45.25" arrivalSpeed="8.69" duration="79.00" routeLength="90.40" waitingTime="57.00" waitingCount="1" stopTime="0.00" timeLoss="72.59" rerouteNo="0" devices="tripinfo_N2W_10" vType="SUMO_DEFAULT_TYPE" speedFactor="1.09" vaporized=""/>
    <tripinfo id="S2E_18" depart="39.00" departLane="1_1_7-1_1_0_0" departPos="5.10" departSpeed="0.00" departDelay="4.00" arrival="103.00" arrivalLane="1_1_0-1_1_5_0" arrivalPos="45.25" arrivalSpeed="9.79" duration="64.00" routeLength="90.40" waitingTime="40.00" waitingCount="1" stopTime="0.00" timeLoss="56.09" rerouteNo="0" devices="tripinfo_S2E_18" vType="SUMO_DEFAULT_TYPE" speedFactor="0.94" vaporized=""/>
    <tripinfo id="N2S_11" depart="26.00" departLane="1_1_3-1_1_0_0" departPos="5.10" departSpeed="0.00" departDelay="2.00" arrival="103.00" arrivalLane="1_1_0-1_1_7_0" arrivalPos="45.25" arrivalSpeed="9.68" duration="77.00" routeLength="94.90" waitingTime="53.00" waitingCount="1" stopTime="0.00" timeLoss="70.03" rerouteNo="0" devices="tripinfo_N2S_11" vType="SUMO_DEFAULT_TYPE" speedFactor="1.03" vaporized=""/>
    <tripinfo id="S2N_26" depart="45.00" departLane="1_1_7-1_1_0_0" departPos="5.10" departSpeed="0.00" departDelay="0.00" arrival="105.00" arrivalLane="1_1_0-1_1_3_0" arrivalPos="45.25" arrivalSpeed="10.56" duration="60.00" routeLength="94.90" waitingTime="36.00" waitingCount="1" stopTime="0.00" timeLoss="51.71" rerouteNo="0" devices="tripinfo_S2N_26" vType="SUMO_DEFAULT_TYPE" speedFactor="0.92" vaporized=""/>
    <tripinfo id="S2W_36" depart="82.00" departLane="1_1_7-1_1_0_0" departPos="5.10" departSpeed="0.00" departDelay="0.00" arrival="108.00" arrivalLane="1_1_0-1_1_1_0" arrivalPos="45.25" arrivalSpeed="9.39" duration="26.00" routeLength="95.72" waitingTime="2.00" waitingCount="1" stopTime="0.00" timeLoss="18.54" rerouteNo="0" devices="tripinfo_S2W_36" vType="SUMO_DEFAULT_TYPE" speedFactor="0.97" vaporized=""/>
    <tripinfo id="S2W_44" depart="94.00" departLane="1_1_7-1_1_0_0" departPos="5.10" departSpeed="0.00" departDelay="0.00" arrival="112.00" arrivalLane="1_1_0-1_1_1_0" arrivalPos="45.25" arrivalSpeed="9.63" duration="18.00" routeLength="95.72" waitingTime="0.00" waitingCount="0" stopTime="0.00" timeLoss="11.08" rerouteNo="0" devices="tripinfo_S2W_44" vType="SUMO_DEFAULT_TYPE" speedFactor="1.04" vaporized=""/>
    <tripinfo id="N2E_12" depart="30.00" departLane="1_1_3-1_1_0_0" departPos="5.10" departSpeed="0.00" departDelay="6.00" arrival="112.00" arrivalLane="1_1_0-1_1_5_0" arrivalPos="45.25" arrivalSpeed="9.29" duration="82.00" routeLength="95.72" waitingTime="53.00" waitingCount="2" stopTime="0.00" timeLoss="74.77" rerouteNo="0" devices="tripinfo_N2E_12" vType="SUMO_DEFAULT_TYPE" speedFactor="1.05" vaporized=""/>
    <tripinfo id="N2E_22" depart="41.00" departLane="1_1_3-1_1_0_0" departPos="5.10" departSpeed="0.00" departDelay="0.00" arrival="114.00" arrivalLane="1_1_0-1_1_5_0" arrivalPos="45.25" arrivalSpeed="9.40" duration="73.00" routeLength="95.72" waitingTime="44.00" waitingCount="1" stopTime="0.00" timeLoss="65.44" rerouteNo="0" devices="tripinfo_N2E_22" vType="SUMO_DEFAULT_TYPE" speedFactor="0.98" vaporized=""/>
    <tripinfo id="N2S_24" depart="45.00" departLane="1_1_3-1_1_0_0" departPos="5.10" departSpeed="0.00" departDelay="2.00" arrival="116.00" arrivalLane="1_1_0-1_1_7_0" arrivalPos="45.25" arrivalSpeed="10.45" duration="71.00" routeLength="94.90" waitingTime="42.00" waitingCount="1" stopTime="0.00" timeLoss="61.92" rerouteNo="0" devices="tripinfo_N2S_24" vType="SUMO_DEFAULT_TYPE" speedFactor="0.83" vaporized=""/>
    <tripinfo id="N2W_37" depart="84.00" departLane="1_1_3-1_1_0_0" departPos="5.10" departSpeed="0.00" departDelay="0.00" arrival="118.00" arrivalLane="1_1_0-1_1_1_0" arrivalPos="45.25" arrivalSpeed="9.54" duration="34.00" routeLength="90.40" waitingTime="7.00" waitingCount="1" stopTime="0.00" timeLoss="28.24" rerouteNo="0" devices="tripinfo_N2W_37" vType="SUMO_DEFAULT_TYPE" speedFactor="1.18" vaporized=""/>
    <tripinfo id="N2S_40" depart="99.00" departLane="1_1_3-1_1_0_0" departPos="5.10" departSpeed="0.00" departDelay="13.00" arrival="121.00" arrivalLane="1_1_0-1_1_7_0" arrivalPos="45.25" arrivalSpeed="10.29" duration="22.00" routeLength="94.90" waitingTime="1.00" waitingCount="1" stopTime="0.00" timeLoss="14.88" rerouteNo="0" devices="tripinfo_N2S_40" vType="SUMO_DEFAULT_TYPE" speedFactor="1.03" vaporized=""/>
    <tripinfo id="N2W_41" depart="104.00" departLane="1_1_3-1_1_0_0" departPos="5.10" departSpeed="0.00" departDelay="17.00" arrival="122.00" arrivalLane="1_1_0-1_1_1_0" arrivalPos="45.25" arrivalSpeed="10.43" duration="18.00" routeLength="90.40" waitingTime="0.00" waitingCount="0" stopTime="0.00" timeLoss="10.81" rerouteNo="0" devices="tripinfo_N2W_41" vType="SUMO_DEFAULT_TYPE" speedFactor="0.96" vaporized=""/>
    <tripinfo id="N2E_42" depart="110.00" departLane="1_1_3-1_1_0_0" departPos="5.10" departSpeed="0.00" departDelay="17.00" arrival="129.00" arrivalLane="1_1_0-1_1_5_0" arrivalPos="45.25" arrivalSpeed="9.83" duration="19.00" routeLength="95.72" waitingTime="0.00" waitingCount="0" stopTime="0.00" timeLoss="11.81" rerouteNo="0" devices="tripinfo_N2E_42" vType="SUMO_DEFAULT_TYPE" speedFactor="1.09" vaporized=""/>
    <tripinfo id="S2W_53" depart="114.00" departLane="1_1_7-1_1_0_0" departPos="5.10" departSpeed="0.00" departDelay="0.00" arrival="130.00" arrivalLane="1_1_0-1_1_1_0" arrivalPos="45.25" arrivalSpeed="12.07" duration="16.00" routeLength="95.72" waitingTime="0.00" waitingCount="0" stopTime="0.00" timeLoss="8.93" rerouteNo="0" devices="tripinfo_S2W_53" vType="SUMO_DEFAULT_TYPE" speedFactor="1.10" vaporized=""/>
    <tripinfo id="S2W_54" depart="118.00" departLane="1_1_7-1_1_0_0" departPos="5.10" departSpeed="0.00" departDelay="3.00" arrival="135.00" arrivalLane="1_1_0-1_1_1_0" arrivalPos="45.25" arrivalSpeed="11.92" duration="17.00" routeLength="95.72" waitingTime="1.00" waitingCount="1" stopTime="0.00" timeLoss="9.62" rerouteNo="0" devices="tripinfo_S2W_54" vType="SUMO_DEFAULT_TYPE" speedFactor="1.00" vaporized=""/>
    <tripinfo id="E2W_19" depart="39.00" departLane="1_1_5-1_1_0_0" departPos="5.10" departSpeed="0.00" departDelay="0.00" arrival="146.00" arrivalLane="1_1_0-1_1_1_0" arrivalPos="45.25" arrivalSpeed="9.49" duration="107.00" routeLength="94.90" waitingTime="77.00" waitingCount="2" stopTime="0.00" timeLoss="100.48" rerouteNo="0" devices="tripinfo_E2W_19" vType="SUMO_DEFAULT_TYPE" speedFactor="1.16" vaporized=""/>
    <tripinfo id="W2E_32" depart="72.00" departLane="1_1_1-1_1_0_0" departPos="5.10" departSpeed="0.00" departDelay="0.00" arrival="146.00" arrivalLane="1_1_0-1_1_5_0" arrivalPos="45.25" arrivalSpeed="9.06" duration="74.00" routeLength="94.90" waitingTime="51.00" waitingCount="1" stopTime="0.00" timeLoss="66.55" rerouteNo="0" devices="tripinfo_W2E_32" vType="SUMO_DEFAULT_TYPE" speedFactor="1.01" vaporized=""/>
    <tripinfo id="E2W_20" depart="43.00" departLane="1_1_5-1_1_0_0" departPos="5.10" departSpeed="0.00" departDelay="3.00" arrival="149.00" arrivalLane="1_1_0-1_1_1_0" arrivalPos="45.25" arrivalSpeed="10.04" duration="106.00" routeLength="94.90" waitingTime="76.00" waitingCount="2" stopTime="0.00" timeLoss="98.47" rerouteNo="0" devices="tripinfo_E2W_20" vType="SUMO_DEFAULT_TYPE" speedFactor="1.02" vaporized=""/>
    <tripinfo id="E2W_21" depart="54.00" departLane="1_1_5-1_1_0_0" departPos="5.10" departSpeed="0.00" departDelay="13.00" arrival="151.00" arrivalLane="1_1_0-1_1_1_0" arrivalPos="45.25" arrivalSpeed="10.16" duration="97.00" routeLength="94.90" waitingTime="71.00" waitingCount="1" stopTime="0.00" timeLoss="89.42" rerouteNo="0" devices="tripinfo_E2W_21" vType="SUMO_DEFAULT_TYPE" speedFactor="1.01" vaporized=""/>
    <tripinfo id="E2W_27" depart="59.00" departLane="1_1_5-1_1_0_0" departPos="5.10" departSpeed="0.00" departDelay="10.00" arrival="154.00" arrivalLane="1_1_0-1_1_1_0" arrivalPos="45.25" arrivalSpeed="10.94" duration="95.00" routeLength="94.90" waitingTime="70.00" waitingCount="1" stopTime="0.00" timeLoss="86.87" rerouteNo="0" devices="tripinfo_E2W_27" vType="SUMO_DEFAULT_TYPE" speedFactor="0.95" vaporized=""/>
    <tripinfo id="E2S_28" depart="64.00" departLane="1_1_5-1_1_0_0" departPos="5.10" departSpeed="0.00" departDelay="15.00" arrival="156.00" arrivalLane="1_1_0-1_1_7_0" arrivalPos="45.25" arrivalSpeed="10.91" duration="92.00" routeLength="95.72" waitingTime="69.00" waitingCount="1" stopTime="0.00" timeLoss="85.24" rerouteNo="0" devices="tripinfo_E2S_28" vType="SUMO_DEFAULT_TYPE" speedFactor="1.13" vaporized=""/>
    <tripinfo id="E2W_29" depart="68.00" departLane="1_1_5-1_1_0_0" departPos="5.10" departSpeed="0.00" departDelay="15.00" arrival="157.00" arrivalLane="1_1_0-1_1_1_0" arrivalPos="45.25" arrivalSpeed="10.59" duration="89.00" routeLength="94.90" waitingTime="66.00" waitingCount="1" stopTime="0.00" timeLoss="81.39" rerouteNo="0" devices="tripinfo_E2W_29" vType="SUMO_DEFAULT_TYPE" speedFactor="0.93" vaporized=""/>
    <tripinfo id="E2W_31" depart="145.00" departLane="1_1_5-1_1_0_0" departPos="5.10" departSpeed="0.00" departDelay="77.00" arrival="160.00" arrivalLane="1_1_0-1_1_1_0" arrivalPos="45.25" arrivalSpeed="11.95" duration="15.00" routeLength="94.90" waitingTime="0.00" waitingCount="0" stopTime="0.00" timeLoss="8.82" rerouteNo="0" devices="tripinfo_E2W_31" vType="SUMO_DEFAULT_TYPE" speedFactor="1.15" vaporized=""/>
    <tripinfo id="E2N_33" depart="149.00" departLane="1_1_5-1_1_0_0" departPos="5.10" departSpeed="0.00" departDelay="76.00" arrival="165.00" arrivalLane="1_1_0-1_1_3_0" arrivalPos="45.25" arrivalSpeed="11.20" duration="16.00" routeLength="90.40" waitingTime="0.00" waitingCount="0" stopTime="0.00" timeLoss="9.91" rerouteNo="0" devices="tripinfo_E2N_33" vType="SUMO_DEFAULT_TYPE" speedFactor="1.17" vaporized=""/>
    <tripinfo id="E2N_35" depart="154.00" departLane="1_1_5-1_1_0_0" departPos="5.10" departSpeed="0.00" departDelay="74.00" arrival="170.00" arrivalLane="1_1_0-1_1_3_0" arrivalPos="45.25" arrivalSpeed="11.52" duration="16.00" routeLength="90.40" waitingTime="0.00" waitingCount="0" stopTime="0.00" timeLoss="8.78" rerouteNo="0" devices="tripinfo_E2N_35" vType="SUMO_DEFAULT_TYPE" speedFactor="1.02" vaporized=""/>
    <tripinfo id="W2N_34" depart="79.00" departLane="1_1_1-1_1_0_0" departPos="5.10" departSpeed="0.00" departDelay="0.00" arrival="177.00" arrivalLane="1_1_0-1_1_3_0" arrivalPos="45.25" arrivalSpeed="8.78" duration="98.00" routeLength="95.72" waitingTime="68.00" waitingCount="2" stopTime="0.00" timeLoss="90.30" rerouteNo="0" devices="tripinfo_W2N_34" vType="SUMO_DEFAULT_TYPE" speedFactor="0.99" vaporized=""/>
    <tripinfo id="N2W_43" depart="114.00" departLane="1_1_3-1_1_0_0" departPos="5.10" departSpeed="0.00" departDelay="20.00" arrival="190.00" arrivalLane="1_1_0-1_1_1_0" arrivalPos="45.25" arrivalSpeed="8.92" duration="76.00" routeLength="90.40" waitingTime="53.00" waitingCount="1" stopTime="0.00" timeLoss="69.31" rerouteNo="0" devices="tripinfo_N2W_43" vType="SUMO_DEFAULT_TYPE" speedFactor="1.04" vaporized=""/>
    <tripinfo id="S2E_65" depart="144.00" departLane="1_1_7-1_1_0_0" departPos="5.10" departSpeed="0.00" departDelay="0.00" arrival="191.00" arrivalLane="1_1_0-1_1_5_0" arrivalPos="45.25" arrivalSpeed="9.50" duration="47.00" routeLength="90.40" waitingTime="24.00" waitingCount="1" stopTime="0.00" timeLoss="38.65" rerouteNo="0" devices="tripinfo_S2E_65" vType="SUMO_DEFAULT_TYPE" speedFactor="0.88" vaporized=""/>
    <tripinfo id="S2E_67" depart="150.00" departLane="1_1_7-1_1_0_0" departPos="5.10" departSpeed="0.00" departDelay="0.00" arrival="193.00" arrivalLane="1_1_0-1_1_5_0" arrivalPos="45.25" arrivalSpeed="9.55" duration="43.00" routeLength="90.40" waitingTime="20.00" waitingCount="1" stopTime="0.00" timeLoss="35.03" rerouteNo="0" devices="tripinfo_S2E_67" vType="SUMO_DEFAULT_TYPE" speedFactor="0.91" vaporized=""/>
    <tripinfo id="S2E_72" depart="161.00" departLane="1_1_7-1_1_0_0" departPos="5.10" departSpeed="0.00" departDelay="0.00" arrival="195.00" arrivalLane="1_1_0-1_1_5_0" arrivalPos="45.25" arrivalSpeed="10.17" duration="34.00" routeLength="90.40" waitingTime="11.00" waitingCount="1" stopTime="0.00" timeLoss="26.41" rerouteNo="0" devices="tripinfo_S2E_72" vType="SUMO_DEFAULT_TYPE" speedFactor="0.94" vaporized=""/>
    <tripinfo id="S2N_80" depart="175.00" departLane="1_1_7-1_1_0_0" departPos="5.10" departSpeed="0.00" departDelay="0.00" arrival="197.00" arrivalLane="1_1_0-1_1_3_0" arrivalPos="45.25" arrivalSpeed="10.85" duration="22.00" routeLength="94.90" waitingTime="0.00" waitingCount="0" stopTime="0.00" timeLoss="14.87" rerouteNo="0" devices="tripinfo_S2N_80" vType="SUMO_DEFAULT_TYPE" speedFactor="1.03" vaporized=""/>
    <tripinfo id="S2E_86" depart="180.00" departLane="1_1_7-1_1_0_0" departPos="5.10" departSpeed="0.00" departDelay="0.00" arrival="199.00" arrivalLane="1_1_0-1_1_5_0" arrivalPos="45.25" arrivalSpeed="11.12" duration="19.00" routeLength="90.40" waitingTime="0.00" waitingCount="0" stopTime="0.00" timeLoss="11.76" rerouteNo="0" devices="tripinfo_S2E_86" vType="SUMO_DEFAULT_TYPE" speedFactor="1.00" vaporized=""/>
    <tripinfo id="N2E_48" depart="119.00" departLane="1_1_3-1_1_0_0" departPos="5.10" departSpeed="0.00" departDelay="21.00" arrival="206.00" arrivalLane="1_1_0-1_1_5_0" arrivalPos="45.25" arrivalSpeed="8.47" duration="87.00" routeLength="95.72" waitingTime="59.00" waitingCount="2" stopTime="0.00" timeLoss="78.74" rerouteNo="0" devices="tripinfo_N2E_48" vType="SUMO_DEFAULT_TYPE" speedFactor="0.88" vaporized=""/>
    <tripinfo id="S2E_91" depart="193.00" departLane="1_1_7-1_1_0_0" departPos="5.10" departSpeed="0.00" departDelay="0.00" arrival="209.00" arrivalLane="1_1_0-1_1_5_0" arrivalPos="45.25" arrivalSpeed="11.47" duration="16.00" routeLength="90.40" waitingTime="0.00" waitingCount="0" stopTime="0.00" timeLoss="7.72" rerouteNo="0" devices="tripinfo_S2E_91" vType="SUMO_DEFAULT_TYPE" speedFactor="0.89" vaporized=""/>
    <tripinfo id="N2W_49" depart="123.00" departLane="1_1_3-1_1_0_0" departPos="5.10" departSpeed="0.00" departDelay="24.00" arrival="210.00" arrivalLane="1_1_0-1_1_1_0" arrivalPos="45.25" arrivalSpeed="8.69" duration="87.00" routeLength="90.40" waitingTime="57.00" waitingCount="3" stopTime="0.00" timeLoss="78.47" rerouteNo="0" devices="tripinfo_N2W_49" vType="SUMO_DEFAULT_TYPE" speedFactor="0.85" vaporized=""/>
    <tripinfo id="N2S_51" depart="128.00" departLane="1_1_3-1_1_0_0" departPos="5.10" departSpeed="0.00" departDelay="18.00" arrival="213.00" arrivalLane="1_1_0-1_1_7_0" arrivalPos="45.25" arrivalSpeed="10.02" duration="85.00" routeLength="94.90" waitingTime="54.00" waitingCount="2" stopTime="0.00" timeLoss="78.39" rerouteNo="0" devices="tripinfo_N2S_51" vType="SUMO_DEFAULT_TYPE" speedFactor="1.17" vaporized=""/>
    <tripinfo id="N2W_52" depart="132.00" departLane="1_1_3-1_1_0_0" departPos="5.10" departSpeed="0.00" departDelay="18.00" arrival="214.00" arrivalLane="1_1_0-1_1_1_0" arrivalPos="45.25" arrivalSpeed="10.66" duration="82.00" routeLength="90.40" waitingTime="51.00" waitingCount="2" stopTime="0.00" timeLoss="74.90" rerouteNo="0" devices="tripinfo_N2W_52" vType="SUMO_DEFAULT_TYPE" speedFactor="1.02" vaporized=""/>
    <tripinfo id="N2W_59" depart="137.00" departLane="1_1_3-1_1_0_0" departPos="5.10" departSpeed="0.00" departDelay="12.00" arrival="216.00" arrivalLane="1_1_0-1_1_1_0" arrivalPos="45.25" arrivalSpeed="10.26" duration="79.00" routeLength="90.40" waitingTime="49.00" waitingCount="2" stopTime="0.00" timeLoss="71.71" rerouteNo="0" devices="tripinfo_N2W_59" vType="SUMO_DEFAULT_TYPE" speedFactor="0.97" vaporized=""/>
    <tripinfo id="S2W_94" depart="198.00" departLane="1_1_7-1_1_0_0" departPos="5.10" departSpeed="0.00" departDelay="1.00" arrival="222.00" arrivalLane="1_1_0-1_1_1_0" arrivalPos="45.25" arrivalSpeed="8.40" duration="24.00" routeLength="95.72" waitingTime="0.00" waitingCount="0" stopTime="0.00" timeLoss="17.45" rerouteNo="0" devices="tripinfo_S2W_94" vType="SUMO_DEFAULT_TYPE" speedFactor="1.09" vaporized=""/>
    <tripinfo id="W2S_46" depart="97.00" departLane="1_1_1-1_1_0_0" departPos="5.10" departSpeed="0.00" departDelay="0.00" arrival="236.00" arrivalLane="1_1_0-1_1_7_0" arrivalPos="45.25" arrivalSpeed="8.91" duration="139.00" routeLength="90.40" waitingTime="109.00" waitingCount="2" stopTime="0.00" timeLoss="131.63" rerouteNo="0" devices="tripinfo_W2S_46" vType="SUMO_DEFAULT_TYPE" speedFactor="1.00" vaporized=""/>
    <tripinfo id="E2N_38" depart="159.00" departLane="1_1_5-1_1_0_0" departPos="5.10" departSpeed="0.00" departDelay="74.00" arrival="236.00" arrivalLane="1_1_0-1_1_3_0" arrivalPos="45.25" arrivalSpeed="8.80" duration="77.00" routeLength="90.40" waitingTime="53.00" waitingCount="1" stopTime="0.00" timeLoss="70.53" rerouteNo="0" devices="tripinfo_E2N_38" vType="SUMO_DEFAULT_TYPE" speedFactor="1.10" vaporized=""/>
    <tripinfo id="W2S_55" depart="117.00" departLane="1_1_1-1_1_0_0" departPos="5.10" departSpeed="0.00" departDelay="0.00" arrival="238.00" arrivalLane="1_1_0-1_1_7_0" arrivalPos="45.25" arrivalSpeed="9.47" duration="121.00" routeLength="90.40" waitingTime="92.00" waitingCount="2" stopTime="0.00" timeLoss="113.66" rerouteNo="0" devices="tripinfo_W2S_55" vType="SUMO_DEFAULT_TYPE" speedFactor="1.00" vaporized=""/>
    <tripinfo id="E2W_39" depart="164.00" departLane="1_1_5-1_1_0_0" departPos="5.10" departSpeed="0.00" departDelay="78.00" arrival="239.00" arrivalLane="1_1_0-1_1_1_0" arrivalPos="45.25" arrivalSpeed="10.12" duration="75.00" routeLength="94.90" waitingTime="51.00" waitingCount="1" stopTime="0.00" timeLoss="66.50" rerouteNo="0" devices="tripinfo_E2W_39" vType="SUMO_DEFAULT_TYPE" speedFactor="0.90" vaporized=""/>
    <tripinfo id="E2W_45" depart="168.00" departLane="1_1_5-1_1_0_0" departPos="5.10" departSpeed="0.00" departDelay="71.00" arrival="241.00" arrivalLane="1_1_0-1_1_1_0" arrivalPos="45.25" arrivalSpeed="10.88" duration="73.00" routeLength="94.90" waitingTime="47.00" waitingCount="1" stopTime="0.00" timeLoss="65.83" rerouteNo="0" devices="tripinfo_E2W_45" vType="SUMO_DEFAULT_TYPE" speedFactor="1.09" vaporized=""/>
    <tripinfo id="W2E_57" depart="121.00" departLane="1_1_1-1_1_0_0" departPos="5.10" departSpeed="0.00" departDelay="0.00" arrival="242.00" arrivalLane="1_1_0-1_1_5_0" arrivalPos="45.25" arrivalSpeed="10.16" duration="121.00" routeLength="94.90" waitingTime="88.00" waitingCount="2" stopTime="0.00" timeLoss="114.24" rerouteNo="0" devices="tripinfo_W2E_57" vType="SUMO_DEFAULT_TYPE" speedFactor="1.14" vaporized=""/>
    <tripinfo id="E2S_47" depart="173.00" departLane="1_1_5-1_1_0_0" departPos="5.10" departSpeed="0.00" departDelay="76.00" arrival="252.00" arrivalLane="1_1_0-1_1_7_0" arrivalPos="45.25" arrivalSpeed="8.63" duration="79.00" routeLength="95.72" waitingTime="48.00" waitingCount="2" stopTime="0.00" timeLoss="70.76" rerouteNo="0" devices="tripinfo_E2S_47" vType="SUMO_DEFAULT_TYPE" speedFactor="0.90" vaporized=""/>
    <tripinfo id="E2W_50" depart="178.00" departLane="1_1_5-1_1_0_0" departPos="5.10" departSpeed="0.00" departDelay="73.00" arrival="255.00" arrivalLane="1_1_0-1_1_1_0" arrivalPos="45.25" arrivalSpeed="8.68" duration="77.00" routeLength="94.90" waitingTime="47.00" waitingCount="2" stopTime="0.00" timeLoss="68.69" rerouteNo="0" devices="tripinfo_E2W_50" vType="SUMO_DEFAULT_TYPE" speedFactor="0.85" vaporized=""/>
    <tripinfo id="E2W_56" depart="183.00" departLane="1_1_5-1_1_0_0" departPos="5.10" departSpeed="0.00" departDelay="64.00" arrival="257.00" arrivalLane="1_1_0-1_1_1_0" arrivalPos="45.25" arrivalSpeed="8.86" duration="74.00" routeLength="94.90" waitingTime="46.00" waitingCount="2" stopTime="0.00" timeLoss="66.06" rerouteNo="0" devices="tripinfo_E2W_56" vType="SUMO_DEFAULT_TYPE" speedFactor="0.90" vaporized=""/>
    <tripinfo id="E2W_58" depart="235.00" departLane="1_1_5-1_1_0_0" departPos="5.10" departSpeed="0.00" departDelay="111.00" arrival="259.00" arrivalLane="1_1_0-1_1_1_0" arrivalPos="45.25" arrivalSpeed="10.29" duration="24.00" routeLength="94.90" waitingTime="1.00" waitingCount="1" stopTime="0.00" timeLoss="16.84" rerouteNo="0" devices="tripinfo_E2W_58" vType="SUMO_DEFAULT_TYPE" speedFactor="1.02" vaporized=""/>
    <tripinfo id="E2W_62" depart="240.00" departLane="1_1_5-1_1_0_0" departPos="5.10" departSpeed="0.00" departDelay="106.00" arrival="262.00" arrivalLane="1_1_0-1_1_1_0" arrivalPos="45.25" arrivalSpeed="10.54" duration="22.00" routeLength="94.90" waitingTime="0.00" waitingCount="0" stopTime="0.00" timeLoss="14.48" rerouteNo="0" devices="tripinfo_E2W_62" vType="SUMO_DEFAULT_TYPE" speedFactor="1.02" vaporized=""/>
    <tripinfo id="W2N_60" depart="129.00" departLane="1_1_1-1_1_0_0" departPos="5.10" departSpeed="0.00" departDelay="0.00" arrival="268.00" arrivalLane="1_1_0-1_1_3_0" arrivalPos="45.25" arrivalSpeed="8.43" duration="139.00" routeLength="95.72" waitingTime="104.00" waitingCount="3" stopTime="0.00" timeLoss="132.19" rerouteNo="0" devices="tripinfo_W2N_60" vType="SUMO_DEFAULT_TYPE" speedFactor="1.08" vaporized=""/>
    <tripinfo id="N2W_64" depart="189.00" departLane="1_1_3-1_1_0_0" departPos="5.10" departSpeed="0.00" departDelay="46.00" arrival="280.00" arrivalLane="1_1_0-1_1_1_0" arrivalPos="45.25" arrivalSpeed="8.63" duration="91.00" routeLength="90.40" waitingTime="60.00" waitingCount="2" stopTime="0.00" timeLoss="83.80" rerouteNo="0" devices="tripinfo_N2W_64" vType="SUMO_DEFAULT_TYPE" speedFactor="0.94" vaporized=""/>