<?xml version="1.0" encoding="UTF-8"?>

<!-- generated on mar 12 feb 2019 16:11:50 CET by Eclipse SUMO GUI Version 1.1.0
<configuration xmlns:xsi="http://www.w3.org/2001/XMLSchema-instance" xsi:noNamespaceSchemaLocation="http://sumo.dlr.de/xsd/sumoConfiguration.xsd">

    <input>
        <net-file value="test_environment/demo.net.xml"/>
        <route-files value="test_environment/demo.rou.xml"/>
        <additional-files value="test_environment/demo.add.xml"/>
    </input>

    <output>
        <tripinfo-output value="test_environment/tripinfo.xml"/>
    </output>

    <traci_server>
        <remote-port value="57845"/>
    </traci_server>

</configuration>
-->

<tripinfos xmlns:xsi="http://www.w3.org/2001/XMLSchema-instance" xsi:noNamespaceSchemaLocation="http://sumo.dlr.de/xsd/tripinfo_file.xsd">
</tripinfos>
